    #         X           Y           Z       CHARGE      MIN DIST   ATOMIC VOL
 --------------------------------------------------------------------------------
    1    4.257606    4.257606    0.000000    7.758935     0.998472    59.707789
    2    4.257606    8.517602    0.000000    7.764000     0.998472    60.961081
    3    4.257606   12.777611    0.000000    7.759734     0.998472    62.660901
    4    8.517602    4.257606    0.000000    7.760390     0.998472    62.978102
    5    8.517602    8.517602    0.000000    7.765220     0.998472    63.453248
    6    8.517602   12.777611    0.000000    7.760816     0.998472    61.866589
    7   12.777611    4.257606    0.000000    7.759198     0.998472    61.950914
    8   12.777611    8.517602    0.000000    7.757893     0.998472    62.727094
    9   12.777611   12.777611    0.000000    7.758260     0.998472    62.845717
   10    4.257606    4.257606    4.216681    7.753272     0.971673    29.962577
   11    4.257606    8.517602    4.216681    7.756647     0.971673    32.835516
   12    4.257606   12.777611    4.216681    7.754108     0.971673    30.765847
   13    8.517602    4.257606    4.216681    7.753523     0.971673    30.459350
   14    8.517602    8.517602    4.216681    7.757071     0.971673    30.582342
   15    8.517602   12.777611    4.216681    7.753226     0.971673    31.560596
   16   12.777611    4.257606    4.216681    7.753069     0.971673    31.929134
   17   12.777611    8.517602    4.216681    7.755823     0.971673    30.803203
   18   12.777611   12.777611    4.216681    7.753239     0.971673    31.736455
   19    2.127602    4.257606    2.129997    7.755909     0.990214     8.821107
   20    2.127602    8.517602    2.129997    7.754652     0.990214     8.803193
   21    2.127602   12.777611    2.129997    7.756441     0.990214     8.822636
   22    6.387611    4.257606    2.129997    7.754005     0.990214     8.811495
   23    6.387611    8.517602    2.129997    7.744677     0.990214     8.816519
   24    6.387611   12.777611    2.129997    7.754741     0.990214     8.817830
   25   10.647607    4.257606    2.129997    7.755294     0.990214     8.815208
   26   10.647607    8.517602    2.129997    7.754463     0.990214     8.799043
   27   10.647607   12.777611    2.129997    7.754467     0.990214     8.807999
   28    4.257606    2.127602    2.129997    7.740240     0.990214     8.830501
   29    4.257606    6.387611    2.129997    7.753056     0.990214     8.798387
   30    4.257606   10.647607    2.129997    7.754316     0.990214     8.808436
   31    8.517602    2.127602    2.129997    7.755967     0.990214     8.811932
   32    8.517602    6.387611    2.129997    7.754628     0.990214     8.807781
   33    8.517602   10.647607    2.129997    7.753641     0.990214     8.801664
   34   12.777611    2.127602    2.129997    7.756142     0.990214     8.812805
   35   12.777611    6.387611    2.129997    7.754063     0.990214     8.806252
   36   12.777611   10.647607    2.129997    7.753810     0.990214     8.803849
   37    2.127602    2.127602    0.000000    7.763675     0.998472    61.760418
   38    2.127602    6.387611    0.000000    7.756887     0.998472    61.203133
   39    2.127602   10.647607    0.000000    7.759943     0.998472    62.735614
   40    6.387611    2.127602    0.000000    7.761808     0.998472    62.346978
   41    6.387611    6.387611    0.000000    7.760946     0.998472    60.492053
   42    6.387611   10.647607    0.000000    7.761264     0.998472    61.577788
   43   10.647607    2.127602    0.000000    7.759525     0.998472    63.131023
   44   10.647607    6.387611    0.000000    7.760563     0.998472    61.801052
   45   10.647607   10.647607    0.000000    7.751505     0.998472    63.321081
   46    2.127602    2.127602    4.216681    7.755213     0.971673    30.937336
   47    2.127602    6.387611    4.216681    7.755373     0.971673    32.407775
   48    2.127602   10.647607    4.216681    7.753750     0.971673    32.067418
   49    6.387611    2.127602    4.216681    7.757195     0.971673    30.456510
   50    6.387611    6.387611    4.216681    7.754229     0.971673    30.079889
   51    6.387611   10.647607    4.216681    7.754164     0.971673    32.140820
   52   10.647607    2.127602    4.216681    7.754170     0.971673    32.332844
   53   10.647607    6.387611    4.216681    7.753176     0.971673    30.569890
   54   10.647607   10.647607    4.216681    7.755242     0.971673    30.722373
   55    4.257606    4.257606    2.129997    7.256200     1.052618    10.413664
   56    4.257606    8.517615    2.129997    7.260756     1.052618    10.422839
   57    4.257606   12.777611    2.129997    7.255104     1.052618    10.401867
   58    8.517602    4.257606    2.129997    7.257859     1.052618    10.422184
   59    8.517602    8.517615    2.129997    7.259614     1.052618    10.414319
   60    8.517602   12.777611    2.129997    7.256913     1.052618    10.414319
   61   12.777611    4.257606    2.129997    7.256369     1.052618    10.411916
   62   12.777611    8.517615    2.129997    7.264979     1.052618    10.439224
   63   12.777611   12.777611    2.129997    7.256656     1.052618    10.411916
   64    2.127602    4.257606    0.000000    7.232530     1.060875    61.705149
   65    2.127602    8.517615    0.000000    7.235969     1.060875    63.342708
   66    2.127602   12.777611    0.000000    7.232834     1.060875    64.138331
   67    6.387611    4.257606    0.000000    7.233530     1.060875    63.808023
   68    6.387611    8.517615    0.000000    7.234847     1.060875    62.775373
   69    6.387611   12.777611    0.000000    7.233505     1.060875    62.954290
   70   10.647607    4.257606    0.000000    7.234071     1.060875    63.451937
   71   10.647607    8.517615    0.000000    7.235094     1.060875    60.082007
   72   10.647607   12.777611    0.000000    7.231853     1.060875    63.107429
   73    2.127602    4.257606    4.260983    7.238965     1.062749    40.420370
   74    2.127602    8.517615    4.260983    7.240298     1.062749    42.819910
   75    2.127602   12.777611    4.260983    7.239050     1.062749    40.487436
   76    6.387611    4.257606    4.260983    7.238318     1.062753    38.643653
   77    6.387611    8.517615    4.260983    7.239414     1.062757    40.156910
   78    6.387611   12.777611    4.260983    7.239211     1.062757    40.409447
   79   10.647607    4.257606    4.260983    7.238978     1.062753    40.340633
   80   10.647607    8.517615    4.260983    7.240344     1.062753    39.177782
   81   10.647607   12.777611    4.260983    7.238641     1.062753    41.654438
   82    4.257606    2.127602    0.000000    7.236900     1.060875    64.452255
   83    4.257606    6.387598    0.000000    7.234996     1.060875    63.919218
   84    4.257606   10.647607    0.000000    7.233375     1.060875    62.650634
   85    8.517602    2.127602    0.000000    7.235033     1.060875    63.356908
   86    8.517602    6.387598    0.000000    7.233248     1.060875    62.917589
   87    8.517602   10.647607    0.000000    7.236856     1.060875    60.034384
   88   12.777611    2.127602    0.000000    7.234189     1.060875    63.452592
   89   12.777611    6.387598    0.000000    7.233118     1.060875    63.187166
   90   12.777611   10.647607    0.000000    7.237024     1.060875    62.736925
   91    4.257606    2.127602    4.260983    7.242648     1.062749    39.399735
   92    4.257606    6.387598    4.260983    7.240192     1.062744    40.343254
   93    4.257606   10.647607    4.260983    7.238906     1.062753    42.244055
   94    8.517602    2.127602    4.260983    7.239284     1.062749    40.545109
   95    8.517602    6.387598    4.260983    7.239027     1.062744    38.838954
   96    8.517602   10.647607    4.260983    7.239595     1.062749    40.782573
   97   12.777611    2.127602    4.260983    7.239899     1.062749    41.633684
   98   12.777611    6.387598    4.260983    7.239928     1.062744    40.696501
   99   12.777611   10.647607    4.260983    7.238662     1.062753    41.061980
  100    2.127602    2.127602    2.129997    7.259181     1.052618    10.415630
  101    2.127602    6.387598    2.129997    7.264714     1.052618    10.439224
  102    2.127602   10.647607    2.129997    7.256372     1.052618    10.408858
  103    6.387611    2.127602    2.129997    7.256926     1.052618    10.402304
  104    6.387611    6.387598    2.129997    7.254247     1.052618    10.404926
  105    6.387611   10.647607    2.129997    7.255348     1.052618    10.411480
  106   10.647607    2.127602    2.129997    7.257072     1.052618    10.412135
  107   10.647607    6.387598    2.129997    7.257099     1.052618    10.416504
  108   10.647607   10.647607    2.129997    7.263289     1.052618    10.434199
  109    6.200358    5.927748   18.304561    4.022027     0.624353    31.525424
  110    7.233084    6.993817   18.316602    4.044080     0.613707    31.501831
  111    5.068216    5.989143   19.144096    3.981491     0.603321    61.854792
  112    6.308093    4.808999   17.453478    4.039214     0.603763    60.083537
  113    8.369354    6.927936   17.483043    4.030142     0.613470    61.448461
  114    7.121541    8.116745   19.161709    4.039757     0.612512    61.174296
  115    4.101294    4.993159   19.134795    4.069167     0.633155    58.987534
  116    5.344635    3.807277   17.438471    4.070933     0.628671    57.109234
  117    9.336391    7.923767   17.491939    4.019975     0.617257    59.479282
  118    8.085894    9.117623   19.177390    4.011323     0.618419    58.015397
  119    4.227266    3.888354   18.281421    3.940412     0.616227    36.988180
  120    9.207186    9.032227   18.340101    3.994691     0.601924    37.354315
  121    3.168635    2.851295   18.309997    2.550095     0.346607    14.834376
  122   10.266865   10.068238   18.312064    2.510105     0.341156    15.074242
  123    3.403506    1.825802   17.433259    7.106711     0.687128   164.531261
  124    2.178159    2.877481   19.027635    7.129246     0.734522   253.656139
  125   10.030831   11.095827   19.186016    7.102947     0.708844   174.515437
  126   11.259245   10.039445   17.597168    7.137331     0.743619   203.611174
  127    4.931790    6.828687   19.822508    0.949068     0.305057   254.526037
  128    7.159395    4.708536   16.783558    0.923417     0.297173    88.470378
  129    8.509474    6.084443   16.810336    0.961891     0.312643    85.513552
  130    6.266201    8.221528   19.825833    0.963655     0.324409   230.126925
  131    3.231295    5.052049   19.788046    0.904535     0.291512   426.634507
  132    5.455182    2.954851   16.770707    0.905695     0.278638   115.943410
  133   10.209278    7.861630   16.842866    0.890741     0.285708   124.827433
  134    7.972829    9.973002   19.840975    0.913301     0.298178   434.344319
  135    2.649333    1.211135   17.540195    0.388650     0.115973    74.280452
  136   10.785950   11.709446   19.079530    0.396806     0.137016   174.397907
 --------------------------------------------------------------------------------
    VACUUM CHARGE:               0.0000
    VACUUM VOLUME:               0.0000
    NUMBER OF ELECTRONS:       900.0000
