 vasp.6.4.3 19Mar24 (build Jul 11 2024 14:45:55) complex                        
  
 executed on             LinuxIFC date 2024.10.15  12:59:11
 running  208 mpi-ranks, with    1 threads/rank, on    2 nodes
 distrk:  each k-point on  104 cores,    2 groups
 distr:  one band on NCORE=   8 cores,   13 groups


--------------------------------------------------------------------------------------------------------


 INCAR:
   SYSTEM = CoO Bulk Cubic Fm3m
   GGA = PE
   ISTART = 0
   ICHARG = 2
   PREC = Accurate
   LASPH = .TRUE.
   ISMEAR = 0
   SIGMA = 0.03
   ENCUT = 600
   EDIFF = 1E-6
   NELM = 900
   LREAL = Auto
   LMAXMIX = 4
   ISPIN = 2
   MAGMOM = 27*5 27*-5 82*0.0
   ALGO = Veryfast
   NELMIN = 5
   ISIF = 2
   NSW = 0
   IBRION = -1
   EDIFFG = -0.001
   LDAU = .TRUE.
   LDAUTYPE = 2
   LDAUL = 2 -1 -1 -1 -1
   LDAUU = 3.0 0 0 0 0
   LDAUJ = 0 0 0 0 0
   LWAVE = .FALSE.
   LCHARG = .FALSE.
   LDAUPRINT = 0
   LORBIT = 11
   NCORE = 8
   KPAR = 2

 POTCAR:    PAW_PBE Co 02Aug2007                  
 POTCAR:    PAW_PBE O 08Apr2002                   
 POTCAR:    PAW_PBE C 08Apr2002                   
 POTCAR:    PAW_PBE O 08Apr2002                   
 POTCAR:    PAW_PBE H 15Jun2001                   
 POTCAR:    PAW_PBE Co 02Aug2007                  
   VRHFIN =Co: d8 s1                                                                                
   LEXCH  = PE                                                                                      
   EATOM  =   813.3670 eV,   59.7808 Ry                                                             
                                                                                                    
   TITEL  = PAW_PBE Co 02Aug2007                                                                    
   LULTRA =        F    use ultrasoft PP ?                                                          
   IUNSCR =        1    unscreen: 0-lin 1-nonlin 2-no                                               
   RPACOR =    2.000    partial core radius                                                         
   POMASS =   58.933; ZVAL   =    9.000    mass and valenz                                          
   RCORE  =    2.300    outmost cutoff radius                                                       
   RWIGS  =    2.460; RWIGS  =    1.302    wigner-seitz radius (au A)                               
   ENMAX  =  267.968; ENMIN  =  200.976 eV                                                          
   RCLOC  =    1.203    cutoff for local pot                                                        
   LCOR   =        T    correct aug charges                                                         
   LPAW   =        T    paw PP                                                                      
   EAUG   =  477.818                                                                                
   DEXC   =    0.000                                                                                
   RMAX   =    2.360    core radius for proj-oper                                                   
   RAUG   =    1.300    factor for augmentation sphere                                              
   RDEP   =    2.393    radius for radial grids                                                     
   RDEPT  =    1.864    core radius for aug-charge                                                  
                                                                                                    
   Atomic configuration                                                                             
    9 entries                                                                                       
     n  l   j            E        occ.                                                              
     1  0  0.50     -7587.6674   2.0000                                                             
     2  0  0.50      -893.6084   2.0000                                                             
     2  1  1.50      -764.5805   6.0000                                                             
     3  0  0.50       -97.5973   2.0000                                                             
     3  1  1.50       -60.9648   6.0000                                                             
     3  2  2.50        -4.2382   8.0000                                                             
     4  0  0.50        -4.3746   1.0000                                                             
     4  1  1.50        -4.0817   0.0000                                                             
     4  3  2.50        -1.3606   0.0000                                                             
   Description                                                                                      
     l       E           TYP  RCUT    TYP  RCUT                                                     
     2     -4.2382362     23  2.300                                                                 
     2     -5.5988188     23  2.300                                                                 
     0     -4.3745797     23  2.300                                                                 
     0      5.7660125     23  2.300                                                                 
     1     -2.7211652     23  2.300                                                                 
     1     16.9860234     23  2.300                                                                 
  local pseudopotential read in
  partial core-charges read in
  partial kinetic energy density read in
  atomic valenz-charges read in
  non local Contribution for L=           2  read in
    real space projection operators read in
  non local Contribution for L=           2  read in
    real space projection operators read in
  non local Contribution for L=           0  read in
    real space projection operators read in
  non local Contribution for L=           0  read in
    real space projection operators read in
  non local Contribution for L=           1  read in
    real space projection operators read in
  non local Contribution for L=           1  read in
    real space projection operators read in
    PAW grid and wavefunctions read in
 
   number of l-projection  operators is LMAX  =           6
   number of lm-projection operators is LMMAX =          18
 
 POTCAR:    PAW_PBE O 08Apr2002                   
   VRHFIN =O: s2p4                                                                                  
   LEXCH  = PE                                                                                      
   EATOM  =   432.3788 eV,   31.7789 Ry                                                             
                                                                                                    
   TITEL  = PAW_PBE O 08Apr2002                                                                     
   LULTRA =        F    use ultrasoft PP ?                                                          
   IUNSCR =        1    unscreen: 0-lin 1-nonlin 2-no                                               
   RPACOR =    1.200    partial core radius                                                         
   POMASS =   16.000; ZVAL   =    6.000    mass and valenz                                          
   RCORE  =    1.520    outmost cutoff radius                                                       
   RWIGS  =    1.550; RWIGS  =    0.820    wigner-seitz radius (au A)                               
   ENMAX  =  400.000; ENMIN  =  300.000 eV                                                          
   ICORE  =        2    local potential                                                             
   LCOR   =        T    correct aug charges                                                         
   LPAW   =        T    paw PP                                                                      
   EAUG   =  605.392                                                                                
   DEXC   =    0.000                                                                                
   RMAX   =    1.553    core radius for proj-oper                                                   
   RAUG   =    1.300    factor for augmentation sphere                                              
   RDEP   =    1.550    radius for radial grids                                                     
   RDEPT  =    1.329    core radius for aug-charge                                                  
                                                                                                    
   Atomic configuration                                                                             
    4 entries                                                                                       
     n  l   j            E        occ.                                                              
     1  0  0.50      -514.6923   2.0000                                                             
     2  0  0.50       -23.9615   2.0000                                                             
     2  1  0.50        -9.0305   4.0000                                                             
     3  2  1.50        -9.5241   0.0000                                                             
   Description                                                                                      
     l       E           TYP  RCUT    TYP  RCUT                                                     
     0    -23.9615318     23  1.200                                                                 
     0     -9.5240782     23  1.200                                                                 
     1     -9.0304911     23  1.520                                                                 
     1      8.1634956     23  1.520                                                                 
     2     -9.5240782      7  1.500                                                                 
  local pseudopotential read in
  partial core-charges read in
  partial kinetic energy density read in
  kinetic energy density of atom read in
  atomic valenz-charges read in
  non local Contribution for L=           0  read in
    real space projection operators read in
  non local Contribution for L=           0  read in
    real space projection operators read in
  non local Contribution for L=           1  read in
    real space projection operators read in
  non local Contribution for L=           1  read in
    real space projection operators read in
    PAW grid and wavefunctions read in
 
   number of l-projection  operators is LMAX  =           4
   number of lm-projection operators is LMMAX =           8
 
 POTCAR:    PAW_PBE C 08Apr2002                   
   VRHFIN =C: s2p2                                                                                  
   LEXCH  = PE                                                                                      
   EATOM  =   147.1560 eV,   10.8157 Ry                                                             
                                                                                                    
   TITEL  = PAW_PBE C 08Apr2002                                                                     
   LULTRA =        F    use ultrasoft PP ?                                                          
   IUNSCR =        1    unscreen: 0-lin 1-nonlin 2-no                                               
   RPACOR =    1.200    partial core radius                                                         
   POMASS =   12.011; ZVAL   =    4.000    mass and valenz                                          
   RCORE  =    1.500    outmost cutoff radius                                                       
   RWIGS  =    1.630; RWIGS  =    0.863    wigner-seitz radius (au A)                               
   ENMAX  =  400.000; ENMIN  =  300.000 eV                                                          
   ICORE  =        2    local potential                                                             
   LCOR   =        T    correct aug charges                                                         
   LPAW   =        T    paw PP                                                                      
   EAUG   =  644.873                                                                                
   DEXC   =    0.000                                                                                
   RMAX   =    1.529    core radius for proj-oper                                                   
   RAUG   =    1.300    factor for augmentation sphere                                              
   RDEP   =    1.501    radius for radial grids                                                     
   RDEPT  =    1.300    core radius for aug-charge                                                  
                                                                                                    
   Atomic configuration                                                                             
    4 entries                                                                                       
     n  l   j            E        occ.                                                              
     1  0  0.50      -273.3789   2.0000                                                             
     2  0  0.50       -13.7508   2.0000                                                             
     2  1  0.50        -5.2854   2.0000                                                             
     3  2  1.50        -5.4423   0.0000                                                             
   Description                                                                                      
     l       E           TYP  RCUT    TYP  RCUT                                                     
     0    -13.7508458     23  1.200                                                                 
     0     -8.2022199     23  1.200                                                                 
     1     -5.2854383     23  1.500                                                                 
     1     34.0145650     23  1.500                                                                 
     2     -5.4423304      7  1.500                                                                 
  local pseudopotential read in
  partial core-charges read in
  partial kinetic energy density read in
  atomic valenz-charges read in
  non local Contribution for L=           0  read in
    real space projection operators read in
  non local Contribution for L=           0  read in
    real space projection operators read in
  non local Contribution for L=           1  read in
    real space projection operators read in
  non local Contribution for L=           1  read in
    real space projection operators read in
    PAW grid and wavefunctions read in
 
   number of l-projection  operators is LMAX  =           4
   number of lm-projection operators is LMMAX =           8
 
 POTCAR:    PAW_PBE O 08Apr2002                   
   VRHFIN =O: s2p4                                                                                  
   LEXCH  = PE                                                                                      
   EATOM  =   432.3788 eV,   31.7789 Ry                                                             
                                                                                                    
   TITEL  = PAW_PBE O 08Apr2002                                                                     
   LULTRA =        F    use ultrasoft PP ?                                                          
   IUNSCR =        1    unscreen: 0-lin 1-nonlin 2-no                                               
   RPACOR =    1.200    partial core radius                                                         
   POMASS =   16.000; ZVAL   =    6.000    mass and valenz                                          
   RCORE  =    1.520    outmost cutoff radius                                                       
   RWIGS  =    1.550; RWIGS  =    0.820    wigner-seitz radius (au A)                               
   ENMAX  =  400.000; ENMIN  =  300.000 eV                                                          
   ICORE  =        2    local potential                                                             
   LCOR   =        T    correct aug charges                                                         
   LPAW   =        T    paw PP                                                                      
   EAUG   =  605.392                                                                                
   DEXC   =    0.000                                                                                
   RMAX   =    1.553    core radius for proj-oper                                                   
   RAUG   =    1.300    factor for augmentation sphere                                              
   RDEP   =    1.550    radius for radial grids                                                     
   RDEPT  =    1.329    core radius for aug-charge                                                  
                                                                                                    
   Atomic configuration                                                                             
    4 entries                                                                                       
     n  l   j            E        occ.                                                              
     1  0  0.50      -514.6923   2.0000                                                             
     2  0  0.50       -23.9615   2.0000                                                             
     2  1  0.50        -9.0305   4.0000                                                             
     3  2  1.50        -9.5241   0.0000                                                             
   Description                                                                                      
     l       E           TYP  RCUT    TYP  RCUT                                                     
     0    -23.9615318     23  1.200                                                                 
     0     -9.5240782     23  1.200                                                                 
     1     -9.0304911     23  1.520                                                                 
     1      8.1634956     23  1.520                                                                 
     2     -9.5240782      7  1.500                                                                 
  local pseudopotential read in
  partial core-charges read in
  partial kinetic energy density read in
  kinetic energy density of atom read in
  atomic valenz-charges read in
  non local Contribution for L=           0  read in
    real space projection operators read in
  non local Contribution for L=           0  read in
    real space projection operators read in
  non local Contribution for L=           1  read in
    real space projection operators read in
  non local Contribution for L=           1  read in
    real space projection operators read in
    PAW grid and wavefunctions read in
 
   number of l-projection  operators is LMAX  =           4
   number of lm-projection operators is LMMAX =           8
 
 POTCAR:    PAW_PBE H 15Jun2001                   
   VRHFIN =H: ultrasoft test                                                                        
   LEXCH  = PE                                                                                      
   EATOM  =    12.4884 eV,    0.9179 Ry                                                             
                                                                                                    
   TITEL  = PAW_PBE H 15Jun2001                                                                     
   LULTRA =        F    use ultrasoft PP ?                                                          
   IUNSCR =        0    unscreen: 0-lin 1-nonlin 2-no                                               
   RPACOR =    0.000    partial core radius                                                         
   POMASS =    1.000; ZVAL   =    1.000    mass and valenz                                          
   RCORE  =    1.100    outmost cutoff radius                                                       
   RWIGS  =    0.700; RWIGS  =    0.370    wigner-seitz radius (au A)                               
   ENMAX  =  250.000; ENMIN  =  200.000 eV                                                          
   RCLOC  =    0.701    cutoff for local pot                                                        
   LCOR   =        T    correct aug charges                                                         
   LPAW   =        T    paw PP                                                                      
   EAUG   =  400.000                                                                                
   RMAX   =    1.123    core radius for proj-oper                                                   
   RAUG   =    1.200    factor for augmentation sphere                                              
   RDEP   =    1.112    radius for radial grids                                                     
   RDEPT  =    0.926    core radius for aug-charge                                                  
                                                                                                    
   Atomic configuration                                                                             
    2 entries                                                                                       
     n  l   j            E        occ.                                                              
     1  0  0.50        -6.4927   1.0000                                                             
     2  1  0.50        -3.4015   0.0000                                                             
   Description                                                                                      
     l       E           TYP  RCUT    TYP  RCUT                                                     
     0     -6.4927494     23  1.100                                                                 
     0      6.8029130     23  1.100                                                                 
     1     -4.0817478     23  1.100                                                                 
  local pseudopotential read in
  atomic valenz-charges read in
  non local Contribution for L=           0  read in
    real space projection operators read in
  non local Contribution for L=           0  read in
    real space projection operators read in
  non local Contribution for L=           1  read in
    real space projection operators read in
    PAW grid and wavefunctions read in
 
   number of l-projection  operators is LMAX  =           3
   number of lm-projection operators is LMMAX =           5
 
 Optimization of the real space projectors (new method)

 maximal supplied QI-value         = 16.25
 optimisation between [QCUT,QGAM] = [ 12.51, 25.03] = [ 43.85,175.40] Ry 
 Optimized for a Real-space Cutoff    1.35 Angstroem

   l    n(q)    QCUT    max X(q) W(low)/X(q) W(high)/X(q)  e(spline) 
   2      9    12.514    65.824    0.12E-03    0.14E-03    0.37E-06
   2      9    12.514    61.429    0.12E-03    0.14E-03    0.37E-06
   0     10    12.514    56.174    0.18E-03    0.10E-03    0.14E-06
   0     10    12.514    31.263    0.16E-03    0.91E-04    0.13E-06
   1     10    12.514    19.828    0.11E-03    0.57E-04    0.19E-06
   1     10    12.514    15.139    0.95E-04    0.45E-04    0.15E-06
 Optimization of the real space projectors (new method)

 maximal supplied QI-value         = 24.76
 optimisation between [QCUT,QGAM] = [ 12.38, 25.00] = [ 42.90,175.06] Ry 
 Optimized for a Real-space Cutoff    1.16 Angstroem

   l    n(q)    QCUT    max X(q) W(low)/X(q) W(high)/X(q)  e(spline) 
   0      9    12.378    20.381    0.16E-03    0.67E-05    0.31E-06
   0      9    12.378    15.268    0.17E-03    0.81E-05    0.33E-06
   1      8    12.378     5.964    0.20E-03    0.16E-03    0.30E-06
   1      8    12.378     5.382    0.18E-03    0.14E-03    0.26E-06
 Optimization of the real space projectors (new method)

 maximal supplied QI-value         = 25.13
 optimisation between [QCUT,QGAM] = [ 12.32, 24.88] = [ 42.47,173.37] Ry 
 Optimized for a Real-space Cutoff    1.16 Angstroem

   l    n(q)    QCUT    max X(q) W(low)/X(q) W(high)/X(q)  e(spline) 
   0      9    12.315   115.676    0.19E-03    0.80E-05    0.34E-06
   0      9    12.315    87.132    0.19E-03    0.82E-05    0.34E-06
   1      8    12.315     4.429    0.18E-03    0.13E-03    0.22E-06
   1      8    12.315     2.733    0.14E-03    0.10E-03    0.18E-06
 Optimization of the real space projectors (new method)

 maximal supplied QI-value         = 24.76
 optimisation between [QCUT,QGAM] = [ 12.38, 25.00] = [ 42.90,175.06] Ry 
 Optimized for a Real-space Cutoff    1.16 Angstroem

   l    n(q)    QCUT    max X(q) W(low)/X(q) W(high)/X(q)  e(spline) 
   0      9    12.378    20.381    0.16E-03    0.67E-05    0.31E-06
   0      9    12.378    15.268    0.17E-03    0.81E-05    0.33E-06
   1      8    12.378     5.964    0.20E-03    0.16E-03    0.30E-06
   1      8    12.378     5.382    0.18E-03    0.14E-03    0.26E-06
 Optimization of the real space projectors (new method)

 maximal supplied QI-value         = 34.20
 optimisation between [QCUT,QGAM] = [ 12.31, 24.97] = [ 42.46,174.58] Ry 
 Optimized for a Real-space Cutoff    1.13 Angstroem

   l    n(q)    QCUT    max X(q) W(low)/X(q) W(high)/X(q)  e(spline) 
   0      8    12.313    19.460    0.10E-03    0.25E-03    0.27E-06
   0      8    12.313    12.209    0.92E-04    0.23E-03    0.26E-06
   1      8    12.313     4.655    0.24E-03    0.28E-03    0.15E-06
  PAW_PBE Co 02Aug2007                  :
 energy of atom  1       EATOM= -813.3670
 kinetic energy error for atom=    0.0018 (will be added to EATOM!!)
  PAW_PBE O 08Apr2002                   :
 energy of atom  2       EATOM= -432.3788
 kinetic energy error for atom=    0.0168 (will be added to EATOM!!)
  PAW_PBE C 08Apr2002                   :
 energy of atom  3       EATOM= -147.1560
 kinetic energy error for atom=    0.0057 (will be added to EATOM!!)
  PAW_PBE O 08Apr2002                   :
 energy of atom  4       EATOM= -432.3788
 kinetic energy error for atom=    0.0168 (will be added to EATOM!!)
  PAW_PBE H 15Jun2001                   :
 energy of atom  5       EATOM=  -12.4884
 kinetic energy error for atom=    0.0004 (will be added to EATOM!!)
 
 
 POSCAR: Generated by VASPKIT code
  positions in direct lattice
  No initial velocities read in


 exchange-correlation table for PE
   RHO(1)=    0.500       N(1)  =     2000
   RHO(2)=  100.500       N(2)  =     4000
 


--------------------------------------------------------------------------------------------------------


 ion  position               nearest neighbor table
   1  0.333  0.333  0.036-  83 2.13  73 2.13  55 2.13  76 2.13  82 2.13  64 2.13  38 2.98  22 2.98
                            19 2.98  37 2.98  50 3.01  47 3.01  29 3.01  13 3.01  10 3.01  49 3.01
   2  0.333  0.666  0.036-  84 2.13  74 2.13  56 2.13  77 2.13  83 2.13  65 2.13  39 2.98  23 2.98
                            20 2.98  38 2.98  51 3.01  48 3.01  30 3.01  14 3.01  11 3.01  50 3.01
   3  0.333  1.000  0.036-  82 2.13  75 2.13  57 2.13  78 2.13  84 2.13  66 2.13  37 2.98  24 2.98
                            21 2.98  39 2.98  49 3.01  46 3.01  28 3.01  15 3.01  12 3.01  51 3.01
   4  0.666  0.333  0.036-  86 2.13  76 2.13  58 2.13  79 2.13  85 2.13  67 2.13  41 2.98  25 2.98
                            22 2.98  40 2.98  53 3.01  50 3.01  32 3.01  16 3.01  13 3.01  52 3.01
   5  0.666  0.666  0.036-  87 2.13  77 2.13  59 2.13  80 2.13  86 2.13  68 2.13  42 2.98  26 2.98
                            23 2.98  41 2.98  54 3.01  51 3.01  33 3.01  17 3.01  14 3.01  53 3.01
   6  0.666  1.000  0.036-  85 2.13  78 2.13  60 2.13  81 2.13  87 2.13  69 2.13  40 2.98  27 2.98
                            24 2.98  42 2.98  52 3.01  49 3.01  31 3.01  18 3.01  15 3.01  54 3.01
   7  1.000  0.333  0.036-  89 2.13  61 2.13  73 2.13  79 2.13  88 2.13  70 2.13  44 2.98  19 2.98
                            25 2.98  43 2.98  47 3.01  35 3.01  53 3.01  10 3.01  16 3.01  46 3.01
   8  1.000  0.666  0.036-  90 2.13  62 2.13  74 2.13  80 2.13  89 2.13  71 2.13  45 2.98  20 2.98
                            26 2.98  44 2.98  48 3.01  36 3.01  54 3.01  11 3.01  17 3.01  47 3.01
   9  1.000  1.000  0.036-  88 2.13  63 2.13  75 2.13  81 2.13  90 2.13  72 2.13  43 2.98  21 2.98
                            27 2.98  45 2.98  46 3.01  34 3.01  52 3.01  12 3.01  18 3.01  48 3.01
  10  0.166  0.333  0.002-  92 2.13  73 2.13  55 2.13  61 2.13  91 2.13  35 3.01  29 3.01  47 3.01
                             7 3.01   1 3.01  34 3.01  28 3.01  46 3.01
  11  0.166  0.666  0.002-  93 2.13  74 2.13  56 2.13  62 2.13  92 2.13  36 3.01  30 3.01  48 3.01
                             8 3.01   2 3.01  35 3.01  29 3.01  47 3.01
  12  0.166  1.000  0.002-  91 2.13  75 2.13  57 2.13  63 2.13  93 2.13  34 3.01  28 3.01  46 3.01
                             9 3.01   3 3.01  36 3.01  30 3.01  48 3.01
  13  0.500  0.333  0.002-  95 2.13  76 2.13  58 2.13  55 2.13  94 2.13  29 3.01  32 3.01  50 3.01
                             1 3.01   4 3.01  28 3.01  31 3.01  49 3.01
  14  0.500  0.666  0.002-  96 2.13  77 2.13  59 2.13  56 2.13  95 2.13  30 3.01  33 3.01  51 3.01
                             2 3.01   5 3.01  29 3.01  32 3.01  50 3.01
  15  0.500  1.000  0.002-  94 2.13  78 2.13  60 2.13  57 2.13  96 2.13  28 3.01  31 3.01  49 3.01
                             3 3.01   6 3.01  30 3.01  33 3.01  51 3.01
  16  0.833  0.333  0.002-  98 2.13  61 2.13  79 2.13  58 2.13  97 2.13  32 3.01  53 3.01  35 3.01
                             4 3.01   7 3.01  31 3.01  52 3.01  34 3.01
  17  0.833  0.666  0.002-  99 2.13  62 2.13  80 2.13  59 2.13  98 2.13  33 3.01  54 3.01  36 3.01
                             5 3.01   8 3.01  32 3.01  53 3.01  35 3.01
  18  0.833  1.000  0.002-  97 2.13  63 2.13  81 2.13  60 2.13  99 2.13  31 3.01  52 3.01  34 3.01
                             6 3.01   9 3.01  33 3.01  54 3.01  36 3.01
  19  0.166  0.333  0.069-  73 2.09 101 2.13  64 2.13  70 2.13 100 2.13  47 2.98   7 2.98   1 2.98
                            46 2.98  44 3.01  38 3.01  43 3.01  37 3.01
  20  0.166  0.666  0.069-  74 2.09 102 2.13  65 2.13  71 2.13 101 2.13  48 2.98   8 2.98   2 2.98
                            47 2.98  45 3.01  39 3.01  44 3.01  38 3.01
  21  0.166  1.000  0.069-  75 2.09 100 2.13  66 2.13  72 2.13 102 2.13  46 2.98   9 2.98   3 2.98
                            48 2.98  43 3.01  37 3.01  45 3.01  39 3.01
  22  0.500  0.333  0.069-  76 2.09 104 2.13  67 2.13  64 2.13 103 2.13  50 2.98   1 2.98   4 2.98
                            49 2.98  38 3.01  41 3.01  37 3.01  40 3.01
  23  0.500  0.666  0.069-  77 2.09 105 2.13  68 2.13  65 2.13 104 2.13  51 2.98   2 2.98   5 2.98
                            50 2.98  39 3.01  42 3.01  38 3.01  41 3.01
  24  0.500  1.000  0.069-  78 2.09 103 2.13  69 2.13  66 2.13 105 2.13  49 2.98   3 2.98   6 2.98
                            51 2.98  37 3.01  40 3.01  39 3.01  42 3.01
  25  0.833  0.333  0.069-  79 2.09 107 2.13  70 2.13  67 2.13 106 2.13  53 2.98   4 2.98   7 2.98
                            52 2.98  41 3.01  44 3.01  40 3.01  43 3.01
  26  0.833  0.666  0.069-  80 2.09 108 2.13  71 2.13  68 2.13 107 2.13  54 2.98   5 2.98   8 2.98
                            53 2.98  42 3.01  45 3.01  41 3.01  44 3.01
  27  0.833  1.000  0.069-  81 2.09 106 2.13  72 2.13  69 2.13 108 2.13  52 2.98   6 2.98   9 2.98
                            54 2.98  40 3.01  43 3.01  42 3.01  45 3.01
  28  0.333  0.166  0.002-  57 2.13  82 2.13  91 2.13  94 2.13  55 2.13  15 3.01  12 3.01   3 3.01
                            49 3.01  46 3.01  13 3.01  10 3.01   1 3.01
  29  0.333  0.500  0.002-  55 2.13  83 2.13  92 2.13  95 2.13  56 2.13  13 3.01  10 3.01   1 3.01
                            50 3.01  47 3.01  14 3.01  11 3.01   2 3.01
  30  0.333  0.833  0.002-  56 2.13  84 2.13  93 2.13  96 2.13  57 2.13  14 3.01  11 3.01   2 3.01
                            51 3.01  48 3.01  15 3.01  12 3.01   3 3.01
  31  0.666  0.166  0.002-  60 2.13  94 2.13  85 2.13  97 2.13  58 2.13  18 3.01  15 3.01   6 3.01
                            52 3.01  49 3.01  16 3.01  13 3.01   4 3.01
  32  0.666  0.500  0.002-  58 2.13  95 2.13  86 2.13  98 2.13  59 2.13  16 3.01  13 3.01   4 3.01
                            53 3.01  50 3.01  17 3.01  14 3.01   5 3.01
  33  0.666  0.833  0.002-  59 2.13  96 2.13  87 2.13  99 2.13  60 2.13  17 3.01  14 3.01   5 3.01
                            54 3.01  51 3.01  18 3.01  15 3.01   6 3.01
  34  1.000  0.166  0.002-  63 2.13  88 2.13  91 2.13  97 2.13  61 2.13  12 3.01   9 3.01  18 3.01
                            46 3.01  52 3.01  10 3.01   7 3.01  16 3.01
  35  1.000  0.500  0.002-  61 2.13  89 2.13  92 2.13  98 2.13  62 2.13  10 3.01   7 3.01  16 3.01
                            47 3.01  53 3.01  11 3.01   8 3.01  17 3.01
  36  1.000  0.833  0.002-  62 2.13  90 2.13  93 2.13  99 2.13  63 2.13  11 3.01   8 3.01  17 3.01
                            48 3.01  54 3.01  12 3.01   9 3.01  18 3.01
  37  0.333  0.166  0.069-  82 2.09  66 2.13 100 2.13 103 2.13  64 2.13   3 2.98  49 2.98  46 2.98
                             1 2.98  24 3.01  21 3.01  22 3.01  19 3.01
  38  0.333  0.500  0.069-  83 2.09  64 2.13 101 2.13 104 2.13  65 2.13   1 2.98  50 2.98  47 2.98
                             2 2.98  22 3.01  19 3.01  23 3.01  20 3.01
  39  0.333  0.833  0.069-  84 2.09  65 2.13 102 2.13 105 2.13  66 2.13   2 2.98  51 2.98  48 2.98
                             3 2.98  23 3.01  20 3.01  24 3.01  21 3.01
  40  0.666  0.166  0.069-  85 2.09  69 2.13 103 2.13 106 2.13  67 2.13   6 2.98  52 2.98  49 2.98
                             4 2.98  27 3.01  24 3.01  25 3.01  22 3.01
  41  0.666  0.500  0.069-  86 2.09  67 2.13 104 2.13 107 2.13  68 2.13   4 2.98  53 2.98  50 2.98
                             5 2.98  25 3.01  22 3.01  26 3.01  23 3.01
  42  0.666  0.833  0.069-  87 2.09  68 2.13 105 2.13 108 2.13  69 2.13   5 2.98  54 2.98  51 2.98
                             6 2.98  26 3.01  23 3.01  27 3.01  24 3.01
  43  1.000  0.166  0.069-  88 2.09  72 2.13 100 2.13 106 2.13  70 2.13   9 2.98  46 2.98  52 2.98
                             7 2.98  21 3.01  27 3.01  19 3.01  25 3.01
  44  1.000  0.500  0.069-  89 2.09  70 2.13 101 2.13 107 2.13  71 2.13   7 2.98  47 2.98  53 2.98
                             8 2.98  19 3.01  25 3.01  20 3.01  26 3.01
  45  1.000  0.833  0.069-  90 2.09  71 2.13 102 2.13 108 2.13  72 2.13   8 2.98  48 2.98  54 2.98
                             9 2.98  20 3.01  26 3.01  21 3.01  27 3.01
  46  0.166  0.166  0.036-  75 2.13  82 2.13  91 2.13  88 2.13  73 2.13 100 2.13  21 2.98  43 2.98
                            37 2.98  19 2.98   9 3.01   3 3.01  12 3.01  34 3.01  28 3.01   7 3.01
  47  0.166  0.500  0.036-  73 2.13  83 2.13  92 2.13  89 2.13  74 2.13 101 2.13  19 2.98  44 2.98
                            38 2.98  20 2.98   7 3.01   1 3.01  10 3.01  35 3.01  29 3.01   8 3.01
  48  0.166  0.833  0.036-  74 2.13  84 2.13  93 2.13  90 2.13  75 2.13 102 2.13  20 2.98  45 2.98
                            39 2.98  21 2.98   8 3.01   2 3.01  11 3.01  36 3.01  30 3.01   9 3.01
  49  0.500  0.166  0.036-  78 2.13  94 2.13  85 2.13  82 2.13  76 2.13 103 2.13  24 2.98  37 2.98
                            40 2.98  22 2.98   3 3.01   6 3.01  15 3.01  28 3.01  31 3.01   1 3.01
  50  0.500  0.500  0.036-  76 2.13  95 2.13  86 2.13  83 2.13  77 2.13 104 2.13  22 2.98  38 2.98
                            41 2.98  23 2.98   1 3.01   4 3.01  13 3.01  29 3.01  32 3.01   2 3.01
  51  0.500  0.833  0.036-  77 2.13  96 2.13  87 2.13  84 2.13  78 2.13 105 2.13  23 2.98  39 2.98
                            42 2.98  24 2.98   2 3.01   5 3.01  14 3.01  30 3.01  33 3.01   3 3.01
  52  0.833  0.166  0.036-  81 2.13  88 2.13  97 2.13  85 2.13  79 2.13 106 2.13  27 2.98  40 2.98
                            43 2.98  25 2.98   6 3.01  18 3.01   9 3.01  31 3.01  34 3.01   4 3.01
  53  0.833  0.500  0.036-  79 2.13  89 2.13  98 2.13  86 2.13  80 2.13 107 2.13  25 2.98  41 2.98
                            44 2.98  26 2.98   4 3.01  16 3.01   7 3.01  32 3.01  35 3.01   5 3.01
  54  0.833  0.833  0.036-  80 2.13  90 2.13  99 2.13  87 2.13  81 2.13 108 2.13  26 2.98  42 2.98
                            45 2.98  27 2.98   5 3.01  17 3.01   8 3.01  33 3.01  36 3.01   6 3.01
  55  0.333  0.333  0.002-  29 2.13  10 2.13   1 2.13  13 2.13  28 2.13
  56  0.333  0.666  0.002-  30 2.13  11 2.13   2 2.13  14 2.13  29 2.13
  57  0.333  1.000  0.002-  28 2.13  12 2.13   3 2.13  15 2.13  30 2.13
  58  0.666  0.333  0.002-  32 2.13   4 2.13  13 2.13  16 2.13  31 2.13
  59  0.666  0.666  0.002-  33 2.13   5 2.13  14 2.13  17 2.13  32 2.13
  60  0.666  1.000  0.002-  31 2.13   6 2.13  15 2.13  18 2.13  33 2.13
  61  1.000  0.333  0.002-  35 2.13  16 2.13   7 2.13  10 2.13  34 2.13
  62  1.000  0.666  0.002-  36 2.13  17 2.13   8 2.13  11 2.13  35 2.13
  63  1.000  1.000  0.002-  34 2.13  18 2.13   9 2.13  12 2.13  36 2.13
  64  0.333  0.333  0.070-  38 2.13  19 2.13  22 2.13  37 2.13   1 2.13
  65  0.333  0.666  0.070-  39 2.13  20 2.13  23 2.13  38 2.13   2 2.13
  66  0.333  1.000  0.070-  37 2.13  21 2.13  24 2.13  39 2.13   3 2.13
  67  0.666  0.333  0.070-  41 2.13  22 2.13  25 2.13  40 2.13   4 2.13
  68  0.666  0.666  0.070-  42 2.13  23 2.13  26 2.13  41 2.13   5 2.13
  69  0.666  1.000  0.070-  40 2.13  24 2.13  27 2.13  42 2.13   6 2.13
  70  1.000  0.333  0.070-  44 2.13  25 2.13  19 2.13  43 2.13   7 2.13
  71  1.000  0.666  0.070-  45 2.13  26 2.13  20 2.13  44 2.13   8 2.13
  72  1.000  1.000  0.070-  43 2.13  27 2.13  21 2.13  45 2.13   9 2.13
  73  0.166  0.333  0.036-  19 2.09  47 2.13  10 2.13   1 2.13   7 2.13  46 2.13
  74  0.166  0.666  0.036-  20 2.09  48 2.13  11 2.13   2 2.13   8 2.13  47 2.13
  75  0.166  1.000  0.036-  21 2.09  46 2.13  12 2.13   3 2.13   9 2.13  48 2.13
  76  0.500  0.333  0.036-  22 2.09  50 2.13   4 2.13  13 2.13   1 2.13  49 2.13
  77  0.500  0.666  0.036-  23 2.09  51 2.13   5 2.13  14 2.13   2 2.13  50 2.13
  78  0.500  1.000  0.036-  24 2.09  49 2.13   6 2.13  15 2.13   3 2.13  51 2.13
  79  0.833  0.333  0.036-  25 2.09  53 2.13  16 2.13   7 2.13   4 2.13  52 2.13
  80  0.833  0.666  0.036-  26 2.09  54 2.13  17 2.13   8 2.13   5 2.13  53 2.13
  81  0.833  1.000  0.036-  27 2.09  52 2.13  18 2.13   9 2.13   6 2.13  54 2.13
  82  0.333  0.166  0.036-  37 2.09   3 2.13  28 2.13  46 2.13  49 2.13   1 2.13
  83  0.333  0.500  0.036-  38 2.09   1 2.13  29 2.13  47 2.13  50 2.13   2 2.13
  84  0.333  0.833  0.036-  39 2.09   2 2.13  30 2.13  48 2.13  51 2.13   3 2.13
  85  0.666  0.166  0.036-  40 2.09   6 2.13  31 2.13  49 2.13  52 2.13   4 2.13
  86  0.666  0.500  0.036-  41 2.09   4 2.13  32 2.13  50 2.13  53 2.13   5 2.13
  87  0.666  0.833  0.036-  42 2.09   5 2.13  33 2.13  51 2.13  54 2.13   6 2.13
  88  1.000  0.166  0.036-  43 2.09   9 2.13  52 2.13  34 2.13  46 2.13   7 2.13
  89  1.000  0.500  0.036-  44 2.09   7 2.13  53 2.13  35 2.13  47 2.13   8 2.13
  90  1.000  0.833  0.036-  45 2.09   8 2.13  54 2.13  36 2.13  48 2.13   9 2.13
  91  0.166  0.166  0.002-  12 2.13  28 2.13  46 2.13  34 2.13  10 2.13
  92  0.166  0.500  0.002-  10 2.13  29 2.13  47 2.13  35 2.13  11 2.13
  93  0.166  0.833  0.002-  11 2.13  30 2.13  48 2.13  36 2.13  12 2.13
  94  0.500  0.166  0.002-  15 2.13  31 2.13  49 2.13  28 2.13  13 2.13
  95  0.500  0.500  0.002-  13 2.13  32 2.13  50 2.13  29 2.13  14 2.13
  96  0.500  0.833  0.002-  14 2.13  33 2.13  51 2.13  30 2.13  15 2.13
  97  0.833  0.166  0.002-  18 2.13  52 2.13  34 2.13  31 2.13  16 2.13
  98  0.833  0.500  0.002-  16 2.13  53 2.13  35 2.13  32 2.13  17 2.13
  99  0.833  0.833  0.002-  17 2.13  54 2.13  36 2.13  33 2.13  18 2.13
 100  0.166  0.166  0.070-  21 2.13  37 2.13  43 2.13  19 2.13  46 2.13
 101  0.166  0.500  0.070-  19 2.13  38 2.13  44 2.13  20 2.13  47 2.13
 102  0.166  0.833  0.070-  20 2.13  39 2.13  45 2.13  21 2.13  48 2.13
 103  0.500  0.166  0.070-  24 2.13  40 2.13  37 2.13  22 2.13  49 2.13
 104  0.500  0.500  0.070-  22 2.13  41 2.13  38 2.13  23 2.13  50 2.13
 105  0.500  0.833  0.070-  23 2.13  42 2.13  39 2.13  24 2.13  51 2.13
 106  0.833  0.166  0.070-  27 2.13  43 2.13  40 2.13  25 2.13  52 2.13
 107  0.833  0.500  0.070-  25 2.13  44 2.13  41 2.13  26 2.13  53 2.13
 108  0.833  0.833  0.070-  26 2.13  45 2.13  42 2.13  27 2.13  54 2.13
 109  0.175  0.173  0.427- 112 1.41 111 1.41 110 1.48
 110  0.173  0.174  0.404- 114 1.41 113 1.41 109 1.48
 111  0.109  0.239  0.440- 127 1.09 115 1.39 109 1.41
 112  0.242  0.107  0.439- 128 1.09 116 1.39 109 1.41
 113  0.239  0.109  0.392- 129 1.09 117 1.39 110 1.41
 114  0.104  0.240  0.392- 130 1.09 118 1.39 110 1.41
 115  0.110  0.238  0.462- 131 1.09 111 1.39 119 1.40
 116  0.245  0.105  0.461- 132 1.09 112 1.39 119 1.40
 117  0.238  0.110  0.369- 133 1.09 113 1.39 120 1.40
 118  0.102  0.242  0.370- 134 1.09 114 1.39 120 1.40
 119  0.178  0.171  0.473- 115 1.40 116 1.40 121 1.48
 120  0.169  0.176  0.358- 117 1.40 118 1.40 122 1.48
 121  0.177  0.174  0.497- 124 1.22 123 1.37 119 1.48
 122  0.170  0.174  0.335- 126 1.22 125 1.37 120 1.48
 123  0.247  0.105  0.506- 135 0.98 121 1.37
 124  0.121  0.230  0.508- 121 1.22
 125  0.101  0.242  0.326- 136 0.98 122 1.37
 126  0.227  0.118  0.324- 122 1.22
 127  0.055  0.292  0.432- 111 1.09
 128  0.295  0.054  0.430- 112 1.09
 129  0.294  0.056  0.400- 113 1.09
 130  0.051  0.292  0.401- 114 1.09
 131  0.059  0.289  0.471- 115 1.09
 132  0.298  0.053  0.470- 116 1.09
 133  0.289  0.059  0.360- 117 1.09
 134  0.049  0.293  0.362- 118 1.09
 135  0.239  0.113  0.521- 123 0.98
 136  0.108  0.234  0.310- 125 0.98
 
  LATTYP: Found a simple tetragonal cell.
 ALAT       =    12.7800006866
 C/A-ratio  =     4.8855929668
  
  Lattice vectors:
  
 A1 = (  12.7800006866,   0.0000000000,   0.0000000000)
 A2 = (   0.0000000000,  12.7800006866,   0.0000000000)
 A3 = (   0.0000000000,   0.0000000000,  62.4378814697)


Analysis of symmetry for initial positions (statically):
=====================================================================
 Subroutine PRICEL returns:
 Original cell was already a primitive cell.
 

 Routine SETGRP: Setting up the symmetry group for a 
 simple tetragonal supercell.


 Subroutine GETGRP returns: Found  1 space group operations
 (whereof  1 operations were pure point group operations)
 out of a pool of 16 trial point group operations.


The static configuration has the point symmetry C_1 .


Analysis of symmetry for dynamics (positions and initial velocities):
=====================================================================
 Subroutine PRICEL returns:
 Original cell was already a primitive cell.
 

 Routine SETGRP: Setting up the symmetry group for a 
 simple tetragonal supercell.


 Subroutine GETGRP returns: Found  1 space group operations
 (whereof  1 operations were pure point group operations)
 out of a pool of 16 trial point group operations.


The dynamic configuration has the point symmetry C_1 .


Analysis of constrained symmetry for selective dynamics:
=====================================================================
 Subroutine PRICEL returns:
 Original cell was already a primitive cell.
 

 Routine SETGRP: Setting up the symmetry group for a 
 simple tetragonal supercell.


 Subroutine GETGRP returns: Found  1 space group operations
 (whereof  1 operations were pure point group operations)
 out of a pool of 16 trial point group operations.


The constrained configuration has the point symmetry C_1 .


Analysis of structural, dynamic, and magnetic symmetry:
=====================================================================
 Subroutine PRICEL returns:
 Original cell was already a primitive cell.
 

 Routine SETGRP: Setting up the symmetry group for a 
 simple tetragonal supercell.


 Subroutine GETGRP returns: Found  1 space group operations
 (whereof  1 operations were pure point group operations)
 out of a pool of 16 trial point group operations.


The overall configuration has the point symmetry C_1 .


 Subroutine INISYM returns: Found  1 space group operations
 (whereof  1 operations are pure point group operations),
 and found     1 'primitive' translations


----------------------------------------------------------------------------------------

                                     Primitive cell                                     

  volume of cell :   10197.8804

  direct lattice vectors                    reciprocal lattice vectors
    12.780000687  0.000000000  0.000000000     0.078247257  0.000000000  0.000000000
     0.000000000 12.780000687  0.000000000     0.000000000  0.078247257  0.000000000
     0.000000000  0.000000000 62.437881470     0.000000000  0.000000000  0.016015918

  length of vectors
    12.780000687 12.780000687 62.437881470     0.078247257  0.078247257  0.016015918

  position of ions in fractional coordinates (direct lattice)
     0.333146036  0.333146155  0.035715513
     0.333146036  0.666479468  0.035715513
     0.333146036  0.999812841  0.035715513
     0.666479349  0.333146155  0.035715513
     0.666479349  0.666479468  0.035715513
     0.666479349  0.999812841  0.035715513
     0.999812722  0.333146155  0.035715513
     0.999812722  0.666479468  0.035715513
     0.999812722  0.999812841  0.035715513
     0.166479304  0.333146155  0.001601592
     0.166479304  0.666479468  0.001601592
     0.166479304  0.999812841  0.001601592
     0.499812633  0.333146155  0.001601592
     0.499812633  0.666479468  0.001601592
     0.499812633  0.999812841  0.001601592
     0.833145976  0.333146155  0.001601592
     0.833145976  0.666479468  0.001601592
     0.833145976  0.999812841  0.001601592
     0.166479304  0.333146155  0.069132574
     0.166479304  0.666479468  0.069132574
     0.166479304  0.999812841  0.069132574
     0.499812633  0.333146155  0.069132574
     0.499812633  0.666479468  0.069132574
     0.499812633  0.999812841  0.069132574
     0.833145976  0.333146155  0.069132574
     0.833145976  0.666479468  0.069132574
     0.833145976  0.999812841  0.069132574
     0.333146036  0.166479185  0.001601592
     0.333146036  0.499812514  0.001601592
     0.333146036  0.833145857  0.001601592
     0.666479349  0.166479185  0.001601592
     0.666479349  0.499812514  0.001601592
     0.666479349  0.833145857  0.001601592
     0.999812722  0.166479185  0.001601592
     0.999812722  0.499812514  0.001601592
     0.999812722  0.833145857  0.001601592
     0.333146036  0.166479185  0.069132574
     0.333146036  0.499812514  0.069132574
     0.333146036  0.833145857  0.069132574
     0.666479349  0.166479185  0.069132574
     0.666479349  0.499812514  0.069132574
     0.666479349  0.833145857  0.069132574
     0.999812722  0.166479185  0.069132574
     0.999812722  0.499812514  0.069132574
     0.999812722  0.833145857  0.069132574
     0.166479304  0.166479185  0.035715513
     0.166479304  0.499812514  0.035715513
     0.166479304  0.833145857  0.035715513
     0.499812633  0.166479185  0.035715513
     0.499812633  0.499812514  0.035715513
     0.499812633  0.833145857  0.035715513
     0.833145976  0.166479185  0.035715513
     0.833145976  0.499812514  0.035715513
     0.833145976  0.833145857  0.035715513
     0.333145946  0.333146274  0.001601608
     0.333145946  0.666479588  0.001601608
     0.333145946  0.999812961  0.001601608
     0.666479290  0.333146274  0.001601608
     0.666479290  0.666479588  0.001601608
     0.666479290  0.999812961  0.001601608
     0.999812603  0.333146274  0.001601608
     0.999812603  0.666479588  0.001601608
     0.999812603  0.999812961  0.001601608
     0.333145946  0.333146274  0.069837764
     0.333145946  0.666479588  0.069837764
     0.333145946  0.999812961  0.069837764
     0.666479290  0.333146274  0.069837764
     0.666479290  0.666479588  0.069837764
     0.666479290  0.999812961  0.069837764
     0.999812603  0.333146274  0.069837764
     0.999812603  0.666479588  0.069837764
     0.999812603  0.999812961  0.069837764
     0.166479394  0.333146274  0.035715494
     0.166479394  0.666479588  0.035715494
     0.166479394  0.999812961  0.035715494
     0.499812722  0.333146274  0.035715494
     0.499812722  0.666479588  0.035715494
     0.499812722  0.999812961  0.035715494
     0.833146036  0.333146274  0.035715494
     0.833146036  0.666479588  0.035715494
     0.833146036  0.999812961  0.035715494
     0.333145946  0.166479066  0.035715494
     0.333145946  0.499812394  0.035715494
     0.333145946  0.833145738  0.035715494
     0.666479290  0.166479066  0.035715494
     0.666479290  0.499812394  0.035715494
     0.666479290  0.833145738  0.035715494
     0.999812603  0.166479066  0.035715494
     0.999812603  0.499812394  0.035715494
     0.999812603  0.833145738  0.035715494
     0.166479394  0.166479066  0.001601608
     0.166479394  0.499812394  0.001601608
     0.166479394  0.833145738  0.001601608
     0.499812722  0.166479066  0.001601608
     0.499812722  0.499812394  0.001601608
     0.499812722  0.833145738  0.001601608
     0.833146036  0.166479066  0.001601608
     0.833146036  0.499812394  0.001601608
     0.833146036  0.833145738  0.001601608
     0.166479394  0.166479066  0.069837764
     0.166479394  0.499812394  0.069837764
     0.166479394  0.833145738  0.069837764
     0.499812722  0.166479066  0.069837764
     0.499812722  0.499812394  0.069837764
     0.499812722  0.833145738  0.069837764
     0.833146036  0.166479066  0.069837764
     0.833146036  0.499812394  0.069837764
     0.833146036  0.833145738  0.069837764
     0.174582300  0.173233421  0.427493390
     0.172737257  0.174175015  0.403724534
     0.108545174  0.238922990  0.439619471
     0.242442829  0.106638084  0.438943014
     0.239251487  0.108950719  0.391602499
     0.104435084  0.240301698  0.392270832
     0.110152357  0.238196021  0.461849357
     0.244559370  0.105463243  0.461198591
     0.237658671  0.109645877  0.369373090
     0.102414200  0.241527073  0.370014464
     0.178251223  0.171419993  0.472934619
     0.169178755  0.176011366  0.358283070
     0.177057187  0.173656986  0.496668359
     0.170488817  0.173820752  0.334549400
     0.246792162  0.105056470  0.505621943
     0.120806108  0.229812277  0.507588865
     0.100573618  0.242202015  0.325585041
     0.226989559  0.117880347  0.323636745
     0.054544916  0.292005772  0.431656817
     0.295102706  0.054217605  0.430439772
     0.293673775  0.056313916  0.399568149
     0.051312330  0.292268229  0.400770801
     0.058758437  0.289310733  0.471035165
     0.297840092  0.053210718  0.469600430
     0.289392762  0.058858189  0.360191364
     0.048830993  0.293451518  0.361607804
     0.239072693  0.113424107  0.521124088
     0.108403059  0.233873023  0.310084230

  ion indices of the primitive-cell ions
   primitive index   ion index
                 1           1
                 2           2
                 3           3
                 4           4
                 5           5
                 6           6
                 7           7
                 8           8
                 9           9
                10          10
                11          11
                12          12
                13          13
                14          14
                15          15
                16          16
                17          17
                18          18
                19          19
                20          20
                21          21
                22          22
                23          23
                24          24
                25          25
                26          26
                27          27
                28          28
                29          29
                30          30
                31          31
                32          32
                33          33
                34          34
                35          35
                36          36
                37          37
                38          38
                39          39
                40          40
                41          41
                42          42
                43          43
                44          44
                45          45
                46          46
                47          47
                48          48
                49          49
                50          50
                51          51
                52          52
                53          53
                54          54
                55          55
                56          56
                57          57
                58          58
                59          59
                60          60
                61          61
                62          62
                63          63
                64          64
                65          65
                66          66
                67          67
                68          68
                69          69
                70          70
                71          71
                72          72
                73          73
                74          74
                75          75
                76          76
                77          77
                78          78
                79          79
                80          80
                81          81
                82          82
                83          83
                84          84
                85          85
                86          86
                87          87
                88          88
                89          89
                90          90
                91          91
                92          92
                93          93
                94          94
                95          95
                96          96
                97          97
                98          98
                99          99
               100         100
               101         101
               102         102
               103         103
               104         104
               105         105
               106         106
               107         107
               108         108
               109         109
               110         110
               111         111
               112         112
               113         113
               114         114
               115         115
               116         116
               117         117
               118         118
               119         119
               120         120
               121         121
               122         122
               123         123
               124         124
               125         125
               126         126
               127         127
               128         128
               129         129
               130         130
               131         131
               132         132
               133         133
               134         134
               135         135
               136         136

----------------------------------------------------------------------------------------

 
 
 KPOINTS: KPOINTS                                 

Automatic generation of k-mesh.
 Grid dimensions read from file:
 generate k-points for:    2    2    1

 Generating k-lattice:

  Cartesian coordinates                     Fractional coordinates (reciprocal lattice)
     0.039123629  0.000000000  0.000000000     0.500000000  0.000000000  0.000000000
     0.000000000  0.039123629  0.000000000     0.000000000  0.500000000  0.000000000
     0.000000000  0.000000000  0.016015918     0.000000000  0.000000000  1.000000000

  Length of vectors
     0.039123629  0.039123629  0.016015918

  Shift w.r.t. Gamma in fractional coordinates (k-lattice)
     0.000000000  0.000000000  0.000000000

 
 Subroutine IBZKPT returns following result:
 ===========================================
 
 Found      4 irreducible k-points:
 
 Following reciprocal coordinates:
            Coordinates               Weight
  0.000000  0.000000  0.000000      1.000000
  0.500000  0.000000  0.000000      1.000000
  0.000000  0.500000  0.000000      1.000000
  0.500000  0.500000  0.000000      1.000000
 
 Following cartesian coordinates:
            Coordinates               Weight
  0.000000  0.000000  0.000000      1.000000
  0.039124  0.000000  0.000000      1.000000
  0.000000  0.039124  0.000000      1.000000
  0.039124  0.039124  0.000000      1.000000
 


--------------------------------------------------------------------------------------------------------




 Dimension of arrays:
   k-points           NKPTS =      4   k-points in BZ     NKDIM =      4   number of bands    NBANDS=    546
   number of dos      NEDOS =    301   number of ions     NIONS =    136
   non local maximal  LDIM  =      6   non local SUM 2l+1 LMDIM =     18
   total plane-waves  NPLWV = ******
   max r-space proj   IRMAX =   5890   max aug-charges    IRDMAX=  22751
   dimension x,y,z NGX =   108 NGY =  108 NGZ =  500
   dimension x,y,z NGXF=   216 NGYF=  216 NGZF= 1000
   support grid    NGXF=   216 NGYF=  216 NGZF= 1000
   ions per type =              54  54  14   4  10
   NGX,Y,Z   is equivalent  to a cutoff of  14.05, 14.05, 13.31 a.u.
   NGXF,Y,Z  is equivalent  to a cutoff of  28.10, 28.10, 26.63 a.u.

 SYSTEM =  CoO Bulk Cubic Fm3m                     
 POSCAR =  Generated by VASPKIT code               

 Startparameter for this run:
   NWRITE =      2    write-flag & timer
   PREC   = accura    normal or accurate (medium, high low for compatibility)
   ISTART =      0    job   : 0-new  1-cont  2-samecut
   ICHARG =      2    charge: 1-file 2-atom 10-const
   ISPIN  =      2    spin polarized calculation?
   LNONCOLLINEAR =      F non collinear calculations
   LSORBIT =      F    spin-orbit coupling
   INIWAV =      1    electr: 0-lowe 1-rand  2-diag
   LASPH  =      T    aspherical Exc in radial PAW
 Electronic Relaxation 1
   ENCUT  =  600.0 eV  44.10 Ry    6.64 a.u.  25.52 25.52124.70*2*pi/ulx,y,z
   ENINI  =  600.0     initial cutoff
   ENAUG  =  644.9 eV  augmentation charge cutoff
   NELM   =    900;   NELMIN=  5; NELMDL=-12     # of ELM steps 
   EDIFF  = 0.1E-05   stopping-criterion for ELM
   LREAL  =      T    real-space projection
   NLSPLINE    = F    spline interpolate recip. space projectors
   LCOMPAT=      F    compatible to vasp.4.4
   GGA_COMPAT  = T    GGA compatible to vasp.4.4-vasp.4.6
   LMAXPAW     = -100 max onsite density
   LMAXMIX     =    4 max onsite mixed and CHGCAR
   VOSKOWN=      0    Vosko Wilk Nusair interpolation
   ROPT   =   -0.00025  -0.00025  -0.00025  -0.00025
   ROPT   =   -0.00025
 Ionic relaxation
   EDIFFG = -.1E-02   stopping-criterion for IOM
   NSW    =      0    number of steps for IOM
   NBLOCK =      1;   KBLOCK =      1    inner block; outer block 
   IBRION =     -1    ionic relax: 0-MD 1-quasi-New 2-CG
   NFREE  =      0    steps in history (QN), initial steepest desc. (CG)
   ISIF   =      2    stress and relaxation
   IWAVPR =     10    prediction:  0-non 1-charg 2-wave 3-comb
   ISYM   =      2    0-nonsym 1-usesym 2-fastsym
   LCORR  =      T    Harris-Foulkes like correction to forces

   POTIM  = 0.5000    time-step for ionic-motion
   TEIN   =    0.0    initial temperature
   TEBEG  =    0.0;   TEEND  =   0.0 temperature during run
   SMASS  =  -3.00    Nose mass-parameter (am)
   estimated Nose-frequenzy (Omega)   =  0.10E-29 period in steps = 0.13E+47 mass=  -0.373E-26a.u.
   SCALEE = 1.0000    scale energy and forces
   NPACO  =    256;   APACO  = 10.0  distance and # of slots for P.C.
   PSTRESS=    0.0 pullay stress

  Mass of Ions in am
   POMASS =  58.93 16.00 12.01 16.00  1.00
  Ionic Valenz
   ZVAL   =   9.00  6.00  4.00  6.00  1.00
  Atomic Wigner-Seitz radii
   RWIGS  =  -1.00 -1.00 -1.00 -1.00 -1.00
  virtual crystal weights 
   VCA    =   1.00  1.00  1.00  1.00  1.00
   NELECT =     900.0000    total number of electrons
   NUPDOWN=      -1.0000    fix difference up-down

 DOS related values:
   EMIN   =  10.00;   EMAX   =-10.00  energy-range for DOS
   EFERMI =   0.00;   METHOD = LEGACY      
   ISMEAR =     0;   SIGMA  =   0.03  broadening in eV -4-tet -1-fermi 0-gaus

 Electronic relaxation 2 (details)
   IALGO  =     48    algorithm
   LDIAG  =      T    sub-space diagonalisation (order eigenvalues)
   LSUBROT=      F    optimize rotation matrix (better conditioning)
   TURBO    =      0    0=normal 1=particle mesh
   IRESTART =      0    0=no restart 2=restart with 2 vectors
   NREBOOT  =      0    no. of reboots
   NMIN     =      0    reboot dimension
   EREF     =   0.00    reference energy to select bands
   IMIX   =      4    mixing-type and parameters
     AMIX     =   0.40;   BMIX     =  1.00
     AMIX_MAG =   1.60;   BMIX_MAG =  1.00
     AMIN     =   0.10
     WC   =   100.;   INIMIX=   1;  MIXPRE=   1;  MAXMIX= -45

 Intra band minimization:
   WEIMIN = 0.0000     energy-eigenvalue tresh-hold
   EBREAK =  0.46E-09  absolut break condition
   DEPER  =   0.30     relativ break condition  

   TIME   =   0.40     timestep for ELM

  volume/ion in A,a.u.               =      74.98       506.02
  Fermi-wavevector in a.u.,A,eV,Ry     =   0.728874  1.377372  7.228191  0.531257
  Thomas-Fermi vector in A             =   1.820456
 
 Write flags
   LWAVE        =      F    write WAVECAR
   LDOWNSAMPLE  =      F    k-point downsampling of WAVECAR
   LCHARG       =      F    write CHGCAR
   LVTOT        =      F    write LOCPOT, total local potential
   LVHAR        =      F    write LOCPOT, Hartree potential only
   WRT_POTENTIAL= false  ! write potential to hdf5 file
   LELF         =      F    write electronic localiz. function (ELF)
   LORBIT       =     11    0 simple, 1 ext, 2 COOP (PROOUT), +10 PAW based schemes


 Dipole corrections
   LMONO      =      F    monopole corrections only (constant potential shift)
   LDIPOL     =      F    correct potential (dipole corrections)
   IDIPOL     =      0    1-x, 2-y, 3-z, 4-all directions 
   EPSILON    =  1.0000000 bulk dielectric constant
   LVACPOTAV  =      F  vacuum potentials using an averaging scheme for the charge density
   VACPOTFLAT =  0.1000000 required flatness to determine vacuum potential
 LDA+U is selected, type is set to LDAUTYPE =  2
   angular momentum for each species LDAUL =     2   -1   -1   -1   -1
   U (eV)           for each species LDAUU =   3.0  0.0  0.0  0.0  0.0
   J (eV)           for each species LDAUJ =   0.0  0.0  0.0  0.0  0.0
 Exchange correlation treatment:
   GGA     = PE    functional components
   XC_C    = 1    coefficients multiplying the functional components
   LIBXC   =     F    Libxc                    
   VOSKOWN =     0    Vosko Wilk Nusair interpolation
   LHFCALC =     F    Hartree Fock is set to
   LHFONE  =     F    Hartree Fock one center treatment
   AEXX    =    0.0000 exact exchange contribution

 Parameters of functionals:
   PE:
     No parameter
 
 Van der Waals corrections
   IVDW    =     0    specifies the selected vdW correction

 Linear response parameters
   LEPSILON=     F    determine dielectric tensor
   LRPA    =     F    only Hartree local field effects (RPA)
   LNABLA  =     F    use nabla operator in PAW spheres
   LVEL    =     F    velocity operator in full k-point grid
   CSHIFT  =0.1000    complex shift for real part using Kramers Kronig
   OMEGAMAX=  -1.0    maximum frequency
   DEG_THRESHOLD= 0.2000000E-02 threshold for treating states as degnerate
   RTIME   =   -0.100 relaxation time in fs
  (WPLASMAI=    0.000 imaginary part of plasma frequency in eV, 0.658/RTIME)
   DFIELD  = 0.0000000 0.0000000 0.0000000 field for delta impulse in time
 
  Optional k-point grid parameters
   LKPOINTS_OPT  =     F    use optional k-point grid
   KPOINTS_OPT_MODE=     1    mode for optional k-point grid
 
 Orbital magnetization related:
   ORBITALMAG=     F  switch on orbital magnetization
   LCHIMAG   =     F  perturbation theory with respect to B field
   DQ        =  0.001000  dq finite difference perturbation B field
   LLRAUG    =     F  two centre corrections for induced B field
   LBONE     =     F  B-component reconstruction in AE one-centre
   LVGVCALC  =     T  calculate vGv susceptibility
   LVGVAPPL  =     F  apply vGv susceptibility instead of pGv for G=0

 Random number generation:
   RANDOM_GENERATOR = DEFAULT
   PCG_SEED         = not used
 -----------------------------------------------------------------------------
|                                                                             |
|           W    W    AA    RRRRR   N    N  II  N    N   GGGG   !!!           |
|           W    W   A  A   R    R  NN   N  II  NN   N  G    G  !!!           |
|           W    W  A    A  R    R  N N  N  II  N N  N  G       !!!           |
|           W WW W  AAAAAA  RRRRR   N  N N  II  N  N N  G  GGG   !            |
|           WW  WW  A    A  R   R   N   NN  II  N   NN  G    G                |
|           W    W  A    A  R    R  N    N  II  N    N   GGGG   !!!           |
|                                                                             |
|     One of the lattice vectors is very long (>50 A), but AMIN is rather     |
|     large. This can spoil convergence since charge sloshing might occur     |
|     along the long lattice vector. If problems with convergence are         |
|     observed, try to decrease AMIN to a smaller value (e.g. 0.01).          |
|     Note: This warning only applies if the self-consistency cycle is        |
|     used.                                                                   |
|                                                                             |
 -----------------------------------------------------------------------------



--------------------------------------------------------------------------------------------------------


 Static calculation
 charge density and potential will be updated during run
 spin polarized calculation
 RMM-DIIS sequential band-by-band
 perform sub-space diagonalisation
    before iterative eigenvector-optimisation
 modified Broyden-mixing scheme, WC =      100.0
 initial mixing is a Kerker type mixing with AMIX =  0.4000 and BMIX =      1.0000
 Hartree-type preconditioning will be used
 using additional bands           96
 real space projection scheme for non local part
 use partial core corrections
 calculate Harris-corrections to forces 
   (improved forces if not selfconsistent)
 use gradient corrections 
 use of overlap-Matrix (Vanderbilt PP)
 Gauss-broadening in eV      SIGMA  =   0.03


--------------------------------------------------------------------------------------------------------


  energy-cutoff  :      600.00
  volume of cell :    10197.88
      direct lattice vectors                 reciprocal lattice vectors
    12.780000687  0.000000000  0.000000000     0.078247257  0.000000000  0.000000000
     0.000000000 12.780000687  0.000000000     0.000000000  0.078247257  0.000000000
     0.000000000  0.000000000 62.437881470     0.000000000  0.000000000  0.016015918

  length of vectors
    12.780000687 12.780000687 62.437881470     0.078247257  0.078247257  0.016015918


 
 k-points in units of 2pi/SCALE and weight: KPOINTS                                 
   0.00000000  0.00000000  0.00000000       0.250
   0.03912363  0.00000000  0.00000000       0.250
   0.00000000  0.03912363  0.00000000       0.250
   0.03912363  0.03912363  0.00000000       0.250
 
 k-points in reciprocal lattice and weights: KPOINTS                                 
   0.00000000  0.00000000  0.00000000       0.250
   0.50000000  0.00000000  0.00000000       0.250
   0.00000000  0.50000000  0.00000000       0.250
   0.50000000  0.50000000  0.00000000       0.250
 
 position of ions in fractional coordinates (direct lattice) 
   0.33314604  0.33314616  0.03571551
   0.33314604  0.66647947  0.03571551
   0.33314604  0.99981284  0.03571551
   0.66647935  0.33314616  0.03571551
   0.66647935  0.66647947  0.03571551
   0.66647935  0.99981284  0.03571551
   0.99981272  0.33314616  0.03571551
   0.99981272  0.66647947  0.03571551
   0.99981272  0.99981284  0.03571551
   0.16647930  0.33314616  0.00160159
   0.16647930  0.66647947  0.00160159
   0.16647930  0.99981284  0.00160159
   0.49981263  0.33314616  0.00160159
   0.49981263  0.66647947  0.00160159
   0.49981263  0.99981284  0.00160159
   0.83314598  0.33314616  0.00160159
   0.83314598  0.66647947  0.00160159
   0.83314598  0.99981284  0.00160159
   0.16647930  0.33314616  0.06913257
   0.16647930  0.66647947  0.06913257
   0.16647930  0.99981284  0.06913257
   0.49981263  0.33314616  0.06913257
   0.49981263  0.66647947  0.06913257
   0.49981263  0.99981284  0.06913257
   0.83314598  0.33314616  0.06913257
   0.83314598  0.66647947  0.06913257
   0.83314598  0.99981284  0.06913257
   0.33314604  0.16647919  0.00160159
   0.33314604  0.49981251  0.00160159
   0.33314604  0.83314586  0.00160159
   0.66647935  0.16647919  0.00160159
   0.66647935  0.49981251  0.00160159
   0.66647935  0.83314586  0.00160159
   0.99981272  0.16647919  0.00160159
   0.99981272  0.49981251  0.00160159
   0.99981272  0.83314586  0.00160159
   0.33314604  0.16647919  0.06913257
   0.33314604  0.49981251  0.06913257
   0.33314604  0.83314586  0.06913257
   0.66647935  0.16647919  0.06913257
   0.66647935  0.49981251  0.06913257
   0.66647935  0.83314586  0.06913257
   0.99981272  0.16647919  0.06913257
   0.99981272  0.49981251  0.06913257
   0.99981272  0.83314586  0.06913257
   0.16647930  0.16647919  0.03571551
   0.16647930  0.49981251  0.03571551
   0.16647930  0.83314586  0.03571551
   0.49981263  0.16647919  0.03571551
   0.49981263  0.49981251  0.03571551
   0.49981263  0.83314586  0.03571551
   0.83314598  0.16647919  0.03571551
   0.83314598  0.49981251  0.03571551
   0.83314598  0.83314586  0.03571551
   0.33314595  0.33314627  0.00160161
   0.33314595  0.66647959  0.00160161
   0.33314595  0.99981296  0.00160161
   0.66647929  0.33314627  0.00160161
   0.66647929  0.66647959  0.00160161
   0.66647929  0.99981296  0.00160161
   0.99981260  0.33314627  0.00160161
   0.99981260  0.66647959  0.00160161
   0.99981260  0.99981296  0.00160161
   0.33314595  0.33314627  0.06983776
   0.33314595  0.66647959  0.06983776
   0.33314595  0.99981296  0.06983776
   0.66647929  0.33314627  0.06983776
   0.66647929  0.66647959  0.06983776
   0.66647929  0.99981296  0.06983776
   0.99981260  0.33314627  0.06983776
   0.99981260  0.66647959  0.06983776
   0.99981260  0.99981296  0.06983776
   0.16647939  0.33314627  0.03571549
   0.16647939  0.66647959  0.03571549
   0.16647939  0.99981296  0.03571549
   0.49981272  0.33314627  0.03571549
   0.49981272  0.66647959  0.03571549
   0.49981272  0.99981296  0.03571549
   0.83314604  0.33314627  0.03571549
   0.83314604  0.66647959  0.03571549
   0.83314604  0.99981296  0.03571549
   0.33314595  0.16647907  0.03571549
   0.33314595  0.49981239  0.03571549
   0.33314595  0.83314574  0.03571549
   0.66647929  0.16647907  0.03571549
   0.66647929  0.49981239  0.03571549
   0.66647929  0.83314574  0.03571549
   0.99981260  0.16647907  0.03571549
   0.99981260  0.49981239  0.03571549
   0.99981260  0.83314574  0.03571549
   0.16647939  0.16647907  0.00160161
   0.16647939  0.49981239  0.00160161
   0.16647939  0.83314574  0.00160161
   0.49981272  0.16647907  0.00160161
   0.49981272  0.49981239  0.00160161
   0.49981272  0.83314574  0.00160161
   0.83314604  0.16647907  0.00160161
   0.83314604  0.49981239  0.00160161
   0.83314604  0.83314574  0.00160161
   0.16647939  0.16647907  0.06983776
   0.16647939  0.49981239  0.06983776
   0.16647939  0.83314574  0.06983776
   0.49981272  0.16647907  0.06983776
   0.49981272  0.49981239  0.06983776
   0.49981272  0.83314574  0.06983776
   0.83314604  0.16647907  0.06983776
   0.83314604  0.49981239  0.06983776
   0.83314604  0.83314574  0.06983776
   0.17458230  0.17323342  0.42749339
   0.17273726  0.17417501  0.40372453
   0.10854517  0.23892299  0.43961947
   0.24244283  0.10663808  0.43894301
   0.23925149  0.10895072  0.39160250
   0.10443508  0.24030170  0.39227083
   0.11015236  0.23819602  0.46184936
   0.24455937  0.10546324  0.46119859
   0.23765867  0.10964588  0.36937309
   0.10241420  0.24152707  0.37001446
   0.17825122  0.17141999  0.47293462
   0.16917876  0.17601137  0.35828307
   0.17705719  0.17365699  0.49666836
   0.17048882  0.17382075  0.33454940
   0.24679216  0.10505647  0.50562194
   0.12080611  0.22981228  0.50758887
   0.10057362  0.24220202  0.32558504
   0.22698956  0.11788035  0.32363675
   0.05454492  0.29200577  0.43165682
   0.29510271  0.05421760  0.43043977
   0.29367378  0.05631392  0.39956815
   0.05131233  0.29226823  0.40077080
   0.05875844  0.28931073  0.47103517
   0.29784009  0.05321072  0.46960043
   0.28939276  0.05885819  0.36019136
   0.04883099  0.29345152  0.36160780
   0.23907269  0.11342411  0.52112409
   0.10840306  0.23387302  0.31008423
 
 position of ions in cartesian coordinates  (Angst):
   4.25760657  4.25760809  2.23000097
   4.25760657  8.51760806  2.23000097
   4.25760657 12.77760879  2.23000097
   8.51760654  4.25760809  2.23000097
   8.51760654  8.51760806  2.23000097
   8.51760654 12.77760879  2.23000097
  12.77760727  4.25760809  2.23000097
  12.77760727  8.51760806  2.23000097
  12.77760727 12.77760879  2.23000097
   2.12760562  4.25760809  0.10000001
   2.12760562  8.51760806  0.10000001
   2.12760562 12.77760879  0.10000001
   6.38760579  4.25760809  0.10000001
   6.38760579  8.51760806  0.10000001
   6.38760579 12.77760879  0.10000001
  10.64760615  4.25760809  0.10000001
  10.64760615  8.51760806  0.10000001
  10.64760615 12.77760879  0.10000001
   2.12760562  4.25760809  4.31649146
   2.12760562  8.51760806  4.31649146
   2.12760562 12.77760879  4.31649146
   6.38760579  4.25760809  4.31649146
   6.38760579  8.51760806  4.31649146
   6.38760579 12.77760879  4.31649146
  10.64760615  4.25760809  4.31649146
  10.64760615  8.51760806  4.31649146
  10.64760615 12.77760879  4.31649146
   4.25760657  2.12760410  0.10000001
   4.25760657  6.38760427  0.10000001
   4.25760657 10.64760462  0.10000001
   8.51760654  2.12760410  0.10000001
   8.51760654  6.38760427  0.10000001
   8.51760654 10.64760462  0.10000001
  12.77760727  2.12760410  0.10000001
  12.77760727  6.38760427  0.10000001
  12.77760727 10.64760462  0.10000001
   4.25760657  2.12760410  4.31649146
   4.25760657  6.38760427  4.31649146
   4.25760657 10.64760462  4.31649146
   8.51760654  2.12760410  4.31649146
   8.51760654  6.38760427  4.31649146
   8.51760654 10.64760462  4.31649146
  12.77760727  2.12760410  4.31649146
  12.77760727  6.38760427  4.31649146
  12.77760727 10.64760462  4.31649146
   2.12760562  2.12760410  2.23000097
   2.12760562  6.38760427  2.23000097
   2.12760562 10.64760462  2.23000097
   6.38760579  2.12760410  2.23000097
   6.38760579  6.38760427  2.23000097
   6.38760579 10.64760462  2.23000097
  10.64760615  2.12760410  2.23000097
  10.64760615  6.38760427  2.23000097
  10.64760615 10.64760462  2.23000097
   4.25760542  4.25760961  0.10000101
   4.25760542  8.51760959  0.10000101
   4.25760542 12.77761033  0.10000101
   8.51760578  4.25760961  0.10000101
   8.51760578  8.51760959  0.10000101
   8.51760578 12.77761033  0.10000101
  12.77760575  4.25760961  0.10000101
  12.77760575  8.51760959  0.10000101
  12.77760575 12.77761033  0.10000101
   4.25760542  4.25760961  4.36052203
   4.25760542  8.51760959  4.36052203
   4.25760542 12.77761033  4.36052203
   8.51760578  4.25760961  4.36052203
   8.51760578  8.51760959  4.36052203
   8.51760578 12.77761033  4.36052203
  12.77760575  4.25760961  4.36052203
  12.77760575  8.51760959  4.36052203
  12.77760575 12.77761033  4.36052203
   2.12760677  4.25760961  2.22999978
   2.12760677  8.51760959  2.22999978
   2.12760677 12.77761033  2.22999978
   6.38760693  4.25760961  2.22999978
   6.38760693  8.51760959  2.22999978
   6.38760693 12.77761033  2.22999978
  10.64760691  4.25760961  2.22999978
  10.64760691  8.51760959  2.22999978
  10.64760691 12.77761033  2.22999978
   4.25760542  2.12760258  2.22999978
   4.25760542  6.38760274  2.22999978
   4.25760542 10.64760310  2.22999978
   8.51760578  2.12760258  2.22999978
   8.51760578  6.38760274  2.22999978
   8.51760578 10.64760310  2.22999978
  12.77760575  2.12760258  2.22999978
  12.77760575  6.38760274  2.22999978
  12.77760575 10.64760310  2.22999978
   2.12760677  2.12760258  0.10000101
   2.12760677  6.38760274  0.10000101
   2.12760677 10.64760310  0.10000101
   6.38760693  2.12760258  0.10000101
   6.38760693  6.38760274  0.10000101
   6.38760693 10.64760310  0.10000101
  10.64760691  2.12760258  0.10000101
  10.64760691  6.38760274  0.10000101
  10.64760691 10.64760310  0.10000101
   2.12760677  2.12760258  4.36052203
   2.12760677  6.38760274  4.36052203
   2.12760677 10.64760310  4.36052203
   6.38760693  2.12760258  4.36052203
   6.38760693  6.38760274  4.36052203
   6.38760693 10.64760310  4.36052203
  10.64760691  2.12760258  4.36052203
  10.64760691  6.38760274  4.36052203
  10.64760691 10.64760310  4.36052203
   2.23116191  2.21392324 26.69178159
   2.20758227  2.22595681 25.20770461
   1.38720740  3.05343597 27.44890843
   3.09841952  1.36283479 27.40667186
   3.05763416  1.39239026 24.45083043
   1.33468045  3.07105587 24.49255972
   1.40774719  3.04414532 28.83689540
   3.12546891  1.34782032 28.79626298
   3.03727797  1.40127439 23.06287320
   1.30885354  3.08671616 23.10291926
   2.27805076  2.19074763 29.52903568
   2.16210461  2.24942538 22.37043585
   2.26279097  2.21933640 31.01092012
   2.17884720  2.22142932 20.88855580
   3.15400400  1.34262176 31.56996297
   1.54390214  2.93700105 31.69277340
   1.28533091  3.09534192 20.32884020
   2.90092672  1.50651091 20.20719273
   0.69708407  3.73183397 26.95173717
   3.77141278  0.69290103 26.87574748
   3.75315105  0.71969188 24.94818871
   0.65577162  3.73518816 25.02327978
   0.75093287  3.69739136 29.41043781
   3.80639658  0.68003301 29.32085599
   3.69843970  0.75220770 22.48958568
   0.62406013  3.75031060 22.57802522
   3.05534918  1.44956017 32.53788404
   1.38539117  2.98889740 19.36100240
 


--------------------------------------------------------------------------------------------------------


 k-point     1 :   0.0000 0.0000 0.0000  plane waves:  340365
 k-point     2 :   0.5000 0.0000 0.0000  plane waves:  340256
 k-point     3 :   0.0000 0.5000 0.0000  plane waves:  340256
 k-point     4 :   0.5000 0.5000 0.0000  plane waves:  340128

 maximum and minimum number of plane-waves per node :     42620    42454

 maximum number of plane-waves:    340365
 maximum index in each direction: 
   IXMAX=   25   IYMAX=   25   IZMAX=  124
   IXMIN=  -26   IYMIN=  -26   IZMIN= -124


 real space projection operators:
  total allocation   :      60797.38 KBytes
  max/ min on nodes  :       7956.01       7243.88


 parallel 3D FFT for wavefunctions:
    minimum data exchange during FFTs selected (reduces bandwidth)
 parallel 3D FFT for charge:
    minimum data exchange during FFTs selected (reduces bandwidth)


 total amount of memory used by VASP MPI-rank0   454546. kBytes
[...]
      8.51761      4.25761      4.36052        -0.012485      0.309825      0.100282
      8.51761      8.51761      4.36052        -0.016275     -0.327981      0.099806
      8.51761     12.77761      4.36052         0.023645      0.013362      0.015224
     12.77761      4.25761      4.36052         0.177700     -0.015203      0.204154
     12.77761      8.51761      4.36052        -0.048744      0.006322      0.135991
     12.77761     12.77761      4.36052        -0.030318     -0.000836     -0.014915
      2.12761      4.25761      2.23000        -0.009404      0.039428      0.050773
      2.12761      8.51761      2.23000        -0.018674     -0.026395     -0.278970
      2.12761     12.77761      2.23000        -0.107980     -0.053085     -0.218404
      6.38761      4.25761      2.23000        -0.044965     -0.092181     -0.237473
      6.38761      8.51761      2.23000         0.043717      0.123267     -0.219236
      6.38761     12.77761      2.23000        -0.119633     -0.001219     -0.236752
     10.64761      4.25761      2.23000         0.022191     -0.080837     -0.257832
     10.64761      8.51761      2.23000        -0.019828     -0.026031     -0.252529
     10.64761     12.77761      2.23000         0.245683      0.015252     -0.271797
      4.25761      2.12760      2.23000        -0.016485      0.027568     -0.278662
      4.25761      6.38760      2.23000         0.011154     -0.015006     -0.245905
      4.25761     10.64760      2.23000        -0.046943     -0.036742     -0.204501
      8.51761      2.12760      2.23000        -0.065968     -0.000568      0.055490
      8.51761      6.38760      2.23000        -0.058476     -0.018804     -0.297892
      8.51761     10.64760      2.23000        -0.067609     -0.009725      0.059398
     12.77761      2.12760      2.23000        -0.031484      0.312037     -0.220316
     12.77761      6.38760      2.23000        -0.051585     -0.045137     -0.240917
     12.77761     10.64760      2.23000        -0.032894     -0.148188     -0.204426
      2.12761      2.12760      0.10000         0.018778      0.017830     -0.392781
      2.12761      6.38760      0.10000        -0.061361     -0.039461     -0.247074
      2.12761     10.64760      0.10000        -0.044892     -0.016112     -0.298070
      6.38761      2.12760      0.10000        -0.009328     -0.031276     -0.311537
      6.38761      6.38760      0.10000         0.008865     -0.006418     -0.357181
      6.38761     10.64760      0.10000        -0.041556     -0.002798     -0.257578
     10.64761      2.12760      0.10000        -0.091721     -0.112230     -0.291657
     10.64761      6.38760      0.10000         0.012837     -0.040221     -0.277059
     10.64761     10.64760      0.10000        -0.064602      0.019288     -0.276008
      2.12761      2.12760      4.36052        -0.030424     -0.365172      0.085236
      2.12761      6.38760      4.36052         0.053273      0.294182      0.079383
      2.12761     10.64760      4.36052        -0.009037      0.014433      0.159754
      6.38761      2.12760      4.36052         0.154703      0.010751      0.204554
      6.38761      6.38760      4.36052        -0.093646      0.008256      0.000741
      6.38761     10.64760      4.36052         0.171577      0.034969      0.155591
     10.64761      2.12760      4.36052        -0.150683      0.042421      0.165698
     10.64761      6.38760      4.36052         0.028583     -0.007041      0.066492
     10.64761     10.64760      4.36052        -0.191758      0.045414      0.114140
      2.23116      2.21392     26.69178        -0.000046     -0.000205      0.004720
      2.20758      2.22596     25.20770        -0.000210     -0.000019     -0.009608
      1.38721      3.05344     27.44891        -0.006574      0.006536      0.007429
      3.09842      1.36283     27.40667         0.004639     -0.005764      0.007253
      3.05763      1.39239     24.45083         0.006015     -0.005770     -0.005116
      1.33468      3.07106     24.49256        -0.005989      0.004579     -0.001245
      1.40775      3.04415     28.83690        -0.006218      0.006463      0.003315
      3.12547      1.34782     28.79626         0.006616     -0.007746      0.005893
      3.03728      1.40127     23.06287         0.005992     -0.005804     -0.006566
      1.30885      3.08672     23.10292        -0.006967      0.004811     -0.007554
      2.27805      2.19075     29.52904        -0.001227      0.000724      0.007224
      2.16210      2.24943     22.37044        -0.000620     -0.000901      0.006829
      2.26279      2.21934     31.01092         0.003131     -0.003688      0.018276
      2.17885      2.22143     20.88856        -0.006291      0.006240     -0.044373
      3.15400      1.34262     31.56996         0.004005     -0.003750      0.008594
      1.54390      2.93700     31.69277        -0.010248      0.012141      0.016527
      1.28533      3.09534     20.32884         0.001886     -0.003977     -0.000686
      2.90093      1.50651     20.20719         0.007243     -0.005672     -0.003316
      0.69708      3.73183     26.95174        -0.009057      0.009552      0.000380
      3.77141      0.69290     26.87575         0.008869     -0.010430      0.000099
      3.75315      0.71969     24.94819         0.010084     -0.009830      0.000067
      0.65577      3.73519     25.02328        -0.010567      0.009415      0.000557
      0.75093      3.69739     29.41044        -0.008455      0.008674      0.005220
      3.80640      0.68003     29.32086         0.008781     -0.010101      0.003900
      3.69844      0.75221     22.48959         0.008522     -0.007982     -0.005370
      0.62406      3.75031     22.57803        -0.009468      0.008586     -0.003261
      3.05535      1.44956     32.53788         0.002012     -0.002651      0.010012
      1.38539      2.98890     19.36100        -0.004154      0.003810     -0.012665
 -----------------------------------------------------------------------------------
    total drift:                                0.025893      0.033189     -0.072225


--------------------------------------------------------------------------------------------------------



  FREE ENERGIE OF THE ION-ELECTRON SYSTEM (eV)
  ---------------------------------------------------
  free  energy   TOTEN  =      -831.83072619 eV

  energy  without entropy=     -831.83072619  energy(sigma->0) =     -831.83072619
 


--------------------------------------------------------------------------------------------------------


    POTLOK:  cpu time      1.4846: real time      1.4924


--------------------------------------------------------------------------------------------------------


     LOOP+:  cpu time  44519.1495: real time  44863.7787
    4ORBIT:  cpu time      0.0000: real time      0.0000



 total charge

# of ion       s       p       d       tot
------------------------------------------
    1        0.310   0.375   7.131   7.816
    2        0.311   0.377   7.129   7.817
    3        0.310   0.376   7.130   7.816
    4        0.310   0.376   7.129   7.816
    5        0.310   0.375   7.131   7.815
    6        0.311   0.375   7.132   7.819
    7        0.310   0.377   7.128   7.815
    8        0.311   0.376   7.131   7.818
    9        0.308   0.374   7.144   7.826
   10        0.294   0.321   7.073   7.688
   11        0.295   0.321   7.075   7.692
   12        0.295   0.322   7.075   7.692
   13        0.295   0.321   7.075   7.692
   14        0.295   0.322   7.076   7.693
   15        0.296   0.322   7.076   7.694
   16        0.296   0.322   7.075   7.693
   17        0.295   0.322   7.076   7.692
   18        0.295   0.322   7.074   7.691
   19        0.297   0.328   7.096   7.721
   20        0.299   0.332   7.080   7.711
   21        0.298   0.331   7.078   7.707
   22        0.298   0.331   7.079   7.708
   23        0.298   0.330   7.080   7.707
   24        0.299   0.330   7.078   7.707
   25        0.298   0.330   7.079   7.707
   26        0.298   0.331   7.079   7.708
   27        0.298   0.331   7.079   7.708
   28        0.294   0.321   7.075   7.691
   29        0.295   0.322   7.074   7.690
   30        0.296   0.322   7.075   7.693
   31        0.295   0.322   7.073   7.690
   32        0.295   0.322   7.074   7.690
   33        0.295   0.322   7.072   7.688
   34        0.296   0.322   7.076   7.693
   35        0.295   0.322   7.075   7.692
   36        0.295   0.321   7.075   7.690
   37        0.298   0.330   7.081   7.710
   38        0.298   0.330   7.083   7.711
   39        0.298   0.330   7.078   7.707
   40        0.297   0.328   7.096   7.721
   41        0.298   0.331   7.083   7.711
   42        0.297   0.328   7.097   7.722
   43        0.298   0.329   7.079   7.706
   44        0.298   0.331   7.080   7.709
   45        0.298   0.330   7.082   7.711
   46        0.310   0.376   7.131   7.817
   47        0.310   0.375   7.131   7.817
   48        0.310   0.376   7.130   7.816
   49        0.310   0.376   7.129   7.815
   50        0.310   0.376   7.132   7.818
   51        0.310   0.377   7.129   7.816
   52        0.310   0.376   7.130   7.816
   53        0.310   0.375   7.132   7.817
   54        0.310   0.376   7.130   7.815
   55        1.549   3.419   0.000   4.968
   56        1.548   3.420   0.000   4.968
   57        1.548   3.419   0.000   4.968
   58        1.548   3.419   0.000   4.968
   59        1.549   3.419   0.000   4.967
   60        1.548   3.421   0.000   4.969
   61        1.548   3.420   0.000   4.968
   62        1.548   3.420   0.000   4.968
   63        1.548   3.420   0.000   4.968
   64        1.549   3.419   0.000   4.968
   65        1.548   3.418   0.000   4.967
   66        1.548   3.418   0.000   4.966
   67        1.548   3.417   0.000   4.965
   68        1.548   3.417   0.000   4.965
   69        1.548   3.416   0.000   4.964
   70        1.549   3.418   0.000   4.967
   71        1.549   3.419   0.000   4.968
   72        1.549   3.419   0.000   4.967
   73        1.549   3.464   0.000   5.013
   74        1.550   3.464   0.000   5.014
   75        1.550   3.464   0.000   5.015
   76        1.550   3.464   0.000   5.014
   77        1.550   3.464   0.000   5.014
   78        1.550   3.464   0.000   5.014
   79        1.550   3.464   0.000   5.014
   80        1.550   3.464   0.000   5.013
   81        1.549   3.465   0.000   5.014
   82        1.549   3.464   0.000   5.014
   83        1.549   3.465   0.000   5.014
   84        1.550   3.465   0.000   5.015
   85        1.550   3.464   0.000   5.013
   86        1.549   3.464   0.000   5.013
   87        1.549   3.464   0.000   5.013
   88        1.550   3.462   0.000   5.012
   89        1.549   3.465   0.000   5.014
   90        1.549   3.463   0.000   5.012
   91        1.548   3.420   0.000   4.968
   92        1.548   3.420   0.000   4.969
   93        1.548   3.419   0.000   4.967
   94        1.548   3.420   0.000   4.968
   95        1.548   3.420   0.000   4.969
   96        1.548   3.420   0.000   4.968
   97        1.548   3.420   0.000   4.968
   98        1.549   3.420   0.000   4.969
   99        1.549   3.420   0.000   4.969
  100        1.548   3.417   0.000   4.965
  101        1.548   3.418   0.000   4.966
  102        1.548   3.418   0.000   4.967
  103        1.549   3.418   0.000   4.966
  104        1.549   3.418   0.000   4.967
  105        1.549   3.417   0.000   4.966
  106        1.549   3.418   0.000   4.967
  107        1.549   3.419   0.000   4.967
  108        1.549   3.418   0.000   4.967
  109        0.859   1.753   0.000   2.612
  110        0.859   1.753   0.000   2.612
  111        0.867   1.775   0.000   2.642
  112        0.867   1.775   0.000   2.641
  113        0.867   1.775   0.000   2.642
  114        0.867   1.775   0.000   2.641
  115        0.871   1.771   0.000   2.642
  116        0.870   1.771   0.000   2.640
  117        0.871   1.771   0.000   2.642
  118        0.870   1.771   0.000   2.640
  119        0.863   1.787   0.000   2.650
  120        0.863   1.786   0.000   2.650
  121        0.867   1.698   0.000   2.565
  122        0.867   1.698   0.000   2.565
  123        1.570   3.599   0.000   5.168
  124        1.586   3.545   0.000   5.130
  125        1.570   3.599   0.000   5.168
  126        1.586   3.544   0.000   5.130
  127        0.649   0.048   0.000   0.697
  128        0.649   0.048   0.000   0.697
  129        0.649   0.048   0.000   0.697
  130        0.649   0.048   0.000   0.697
  131        0.640   0.048   0.000   0.688
  132        0.643   0.048   0.000   0.691
  133        0.640   0.048   0.000   0.688
  134        0.643   0.048   0.000   0.691
  135        0.610   0.118   0.000   0.728
  136        0.610   0.118   0.000   0.728
--------------------------------------------------
tot        124.713 243.486 383.188 751.387



 magnetization (x)

# of ion       s       p       d       tot
------------------------------------------
    1        0.020   0.019   2.677   2.716
    2        0.020   0.019   2.674   2.713
    3        0.019   0.019   2.670   2.708
    4        0.020   0.019   2.675   2.714
    5        0.019   0.019   2.676   2.714
    6        0.020   0.019   2.671   2.710
    7        0.020   0.019   2.676   2.715
    8        0.019   0.019   2.671   2.709
    9        0.019   0.019   2.654   2.692
   10        0.028   0.026   2.680   2.733
   11        0.027   0.026   2.674   2.727
   12        0.028   0.025   2.677   2.730
   13        0.027   0.026   2.677   2.729
   14        0.027   0.026   2.676   2.729
   15        0.028   0.026   2.674   2.727
   16        0.027   0.026   2.674   2.727
   17        0.027   0.026   2.674   2.728
   18        0.028   0.026   2.680   2.734
   19        0.027   0.027   2.655   2.708
   20        0.027   0.027   2.676   2.730
   21        0.027   0.026   2.684   2.738
   22        0.027   0.026   2.678   2.731
   23        0.027   0.026   2.679   2.732
   24        0.028   0.026   2.682   2.736
   25        0.027   0.027   2.680   2.734
   26        0.027   0.027   2.679   2.733
   27        0.029   0.027   2.680   2.735
   28       -0.028  -0.026  -2.677  -2.731
   29       -0.028  -0.026  -2.679  -2.733
   30       -0.027  -0.026  -2.675  -2.728
   31       -0.028  -0.026  -2.678  -2.732
   32       -0.028  -0.026  -2.678  -2.732
   33       -0.028  -0.026  -2.682  -2.736
   34       -0.028  -0.026  -2.677  -2.730
   35       -0.028  -0.026  -2.676  -2.729
   36       -0.028  -0.026  -2.679  -2.732
   37       -0.028  -0.027  -2.679  -2.734
   38       -0.028  -0.027  -2.676  -2.730
   39       -0.027  -0.026  -2.684  -2.737
   40       -0.027  -0.027  -2.656  -2.710
   41       -0.028  -0.027  -2.678  -2.732
   42       -0.027  -0.026  -2.654  -2.707
   43       -0.027  -0.026  -2.683  -2.737
   44       -0.028  -0.027  -2.681  -2.735
   45       -0.028  -0.027  -2.678  -2.733
   46       -0.019  -0.019  -2.670  -2.708
   47       -0.020  -0.019  -2.674  -2.713
   48       -0.019  -0.019  -2.672  -2.710
   49       -0.019  -0.019  -2.675  -2.714
   50       -0.019  -0.019  -2.668  -2.706
   51       -0.020  -0.019  -2.675  -2.714
   52       -0.020  -0.019  -2.674  -2.712
   53       -0.019  -0.019  -2.669  -2.707
   54       -0.020  -0.019  -2.674  -2.713
   55        0.003   0.041   0.000   0.045
   56        0.004   0.041   0.000   0.044
   57        0.003   0.031   0.000   0.034
   58        0.003   0.034   0.000   0.038
   59        0.003   0.033   0.000   0.036
   60        0.004   0.041   0.000   0.044
   61        0.004   0.039   0.000   0.043
   62        0.003   0.034   0.000   0.038
   63        0.004   0.044   0.000   0.048
   64        0.004   0.053   0.000   0.057
   65        0.003   0.040   0.000   0.043
   66        0.003   0.036   0.000   0.040
   67        0.004   0.055   0.000   0.059
   68        0.004   0.054   0.000   0.057
   69        0.004   0.071   0.000   0.075
   70        0.004   0.050   0.000   0.054
   71        0.003   0.039   0.000   0.041
   72        0.004   0.052   0.000   0.056
   73        0.009   0.093   0.000   0.102
   74        0.008   0.082   0.000   0.090
   75        0.008   0.090   0.000   0.098
   76        0.008   0.081   0.000   0.088
   77        0.008   0.082   0.000   0.090
   78        0.008   0.084   0.000   0.092
   79        0.008   0.083   0.000   0.091
   80        0.008   0.083   0.000   0.090
   81        0.008   0.085   0.000   0.093
   82       -0.008  -0.083   0.000  -0.092
   83       -0.008  -0.077   0.000  -0.085
   84       -0.008  -0.083   0.000  -0.090
   85       -0.009  -0.095   0.000  -0.104
   86       -0.008  -0.079   0.000  -0.087
   87       -0.009  -0.092   0.000  -0.101
   88       -0.008  -0.098   0.000  -0.106
   89       -0.008  -0.079   0.000  -0.087
   90       -0.008  -0.093   0.000  -0.102
   91       -0.003  -0.033   0.000  -0.036
   92       -0.003  -0.039   0.000  -0.043
   93       -0.004  -0.038   0.000  -0.042
   94       -0.003  -0.037   0.000  -0.040
   95       -0.003  -0.034   0.000  -0.037
   96       -0.003  -0.039   0.000  -0.042
   97       -0.003  -0.036   0.000  -0.039
   98       -0.003  -0.033   0.000  -0.036
   99       -0.003  -0.038   0.000  -0.041
  100       -0.003  -0.053   0.000  -0.056
  101       -0.004  -0.060   0.000  -0.063
  102       -0.003  -0.041   0.000  -0.044
  103       -0.004  -0.052   0.000  -0.055
  104       -0.003  -0.038   0.000  -0.041
  105       -0.004  -0.054   0.000  -0.058
  106       -0.004  -0.049   0.000  -0.052
  107       -0.003  -0.043   0.000  -0.046
  108       -0.003  -0.051   0.000  -0.054
  109        0.000   0.000   0.000   0.000
  110       -0.000  -0.000   0.000  -0.000
  111        0.000   0.000   0.000   0.000
  112        0.000   0.000   0.000   0.000
  113        0.000   0.000   0.000   0.000
  114        0.000   0.000   0.000   0.000
  115        0.000   0.000   0.000   0.000
  116        0.000   0.000   0.000   0.000
  117        0.000   0.000   0.000   0.000
  118        0.000   0.000   0.000   0.000
  119       -0.000  -0.000   0.000  -0.000
  120       -0.000  -0.000   0.000  -0.000
  121        0.000  -0.000   0.000  -0.000
  122        0.000  -0.000   0.000  -0.000
  123       -0.000  -0.000   0.000  -0.000
  124       -0.000  -0.000   0.000  -0.000
  125        0.000  -0.000   0.000  -0.000
  126       -0.000  -0.000   0.000  -0.000
  127        0.000   0.000   0.000   0.000
  128        0.000   0.000   0.000   0.000
  129        0.000   0.000   0.000   0.000
  130        0.000   0.000   0.000   0.000
  131       -0.000   0.000   0.000  -0.000
  132       -0.000   0.000   0.000   0.000
  133       -0.000   0.000   0.000  -0.000
  134       -0.000   0.000   0.000  -0.000
  135        0.000  -0.000   0.000   0.000
  136        0.000  -0.000   0.000   0.000
--------------------------------------------------
tot         -0.006   0.002   0.006   0.003
 

 total amount of memory used by VASP MPI-rank0   454546. kBytes
=======================================================================

   base      :      30000. kBytes
   nonlr-proj:      23350. kBytes
   fftplans  :      42563. kBytes
   grid      :     128034. kBytes
   one-center:        528. kBytes
   wavefun   :     230071. kBytes
 
  
  
 General timing and accounting informations for this job:
 ========================================================
  
                  Total CPU time used (sec):    44627.230
                            User time (sec):    44546.783
                          System time (sec):       80.448
                         Elapsed time (sec):    44977.957
  
                   Maximum memory used (kb):     1011868.
                   Average memory used (kb):          N/A
  
                          Minor page faults:     31711666
                          Major page faults:          747
                 Voluntary context switches:        32302
