 vasp.6.4.3 19Mar24 (build Jul 11 2024 14:45:55) complex                        
  
 executed on             LinuxIFC date 2024.10.14  15:58:55
 running  208 mpi-ranks, with    1 threads/rank, on    2 nodes
 distrk:  each k-point on  104 cores,    2 groups
 distr:  one band on NCORE=   8 cores,   13 groups


--------------------------------------------------------------------------------------------------------


 INCAR:
   SYSTEM = CoO Bulk Cubic Fm3m
   GGA = PE
   ISTART = 0
   ICHARG = 2
   PREC = Accurate
   LASPH = .TRUE.
   ISMEAR = 0
   SIGMA = 0.03
   ENCUT = 600
   EDIFF = 1E-7
   NELM = 900
   LREAL = Auto
   ISPIN = 2
   MAGMOM = 28*0.0
   ALGO = Normal
   NELMIN = 5
   ISIF = 2
   NSW = 0
   IBRION = -1
   EDIFFG = -0.001
   LDAU = .TRUE.
   LDAUTYPE = 2
   LDAUL = -1 -1 -1
   LDAUU = 0 0 0
   LDAUJ = 0 0 0
   LWAVE = .FALSE.
   LCHARG = .FALSE.
   LDAUPRINT = 0
   LORBIT = 11
   NCORE = 8
   KPAR = 2

 POTCAR:    PAW_PBE C 08Apr2002                   
 POTCAR:    PAW_PBE O 08Apr2002                   
 POTCAR:    PAW_PBE H 15Jun2001                   
 POTCAR:    PAW_PBE C 08Apr2002                   
   SHA256 =  253f7b50bb8d59471dbedb8285d89021f4a42ed1a2c5d38a03a736e69125dd95 C/POTCAR              
   COPYR  = (c) Copyright 08Apr2002 Georg Kresse                                                    
   COPYR  = This file is part of the software VASP. Any use, copying, and all other rights are regul
   COPYR  = If you do not have a valid VASP license, you may not use, copy or distribute this file. 
   VRHFIN =C: s2p2                                                                                  
   LEXCH  = PE                                                                                      
   EATOM  =   147.1560 eV,   10.8157 Ry                                                             
                                                                                                    
   TITEL  = PAW_PBE C 08Apr2002                                                                     
   LULTRA =        F    use ultrasoft PP ?                                                          
   IUNSCR =        1    unscreen: 0-lin 1-nonlin 2-no                                               
   RPACOR =    1.200    partial core radius                                                         
   POMASS =   12.011; ZVAL   =    4.000    mass and valenz                                          
   RCORE  =    1.500    outmost cutoff radius                                                       
   RWIGS  =    1.630; RWIGS  =    0.863    wigner-seitz radius (au A)                               
   ENMAX  =  400.000; ENMIN  =  300.000 eV                                                          
   ICORE  =        2    local potential                                                             
   LCOR   =        T    correct aug charges                                                         
   LPAW   =        T    paw PP                                                                      
   EAUG   =  644.873                                                                                
   DEXC   =    0.000                                                                                
   RMAX   =    1.529    core radius for proj-oper                                                   
   RAUG   =    1.300    factor for augmentation sphere                                              
   RDEP   =    1.501    radius for radial grids                                                     
   RDEPT  =    1.300    core radius for aug-charge                                                  
                                                                                                    
   Atomic configuration                                                                             
    4 entries                                                                                       
     n  l   j            E        occ.                                                              
     1  0  0.50      -273.3789   2.0000                                                             
     2  0  0.50       -13.7508   2.0000                                                             
     2  1  0.50        -5.2854   2.0000                                                             
     3  2  1.50        -5.4423   0.0000                                                             
   Description                                                                                      
     l       E           TYP  RCUT    TYP  RCUT                                                     
     0    -13.7508458     23  1.200                                                                 
     0     -8.2022199     23  1.200                                                                 
     1     -5.2854383     23  1.500                                                                 
     1     34.0145650     23  1.500                                                                 
     2     -5.4423304      7  1.500                                                                 
  local pseudopotential read in
  partial core-charges read in
  partial kinetic energy density read in
  atomic valenz-charges read in
  non local Contribution for L=           0  read in
    real space projection operators read in
  non local Contribution for L=           0  read in
    real space projection operators read in
  non local Contribution for L=           1  read in
    real space projection operators read in
  non local Contribution for L=           1  read in
    real space projection operators read in
    PAW grid and wavefunctions read in
 
   number of l-projection  operators is LMAX  =           4
   number of lm-projection operators is LMMAX =           8
 
 POTCAR:    PAW_PBE O 08Apr2002                   
   SHA256 =  818f92134a0a090dccd8ba1447fa70422a3b330e708bb4f08108d8ae51209ddf O/POTCAR              
   COPYR  = (c) Copyright 08Apr2002 Georg Kresse                                                    
   COPYR  = This file is part of the software VASP. Any use, copying, and all other rights are regul
   COPYR  = If you do not have a valid VASP license, you may not use, copy or distribute this file. 
   VRHFIN =O: s2p4                                                                                  
   LEXCH  = PE                                                                                      
   EATOM  =   432.3788 eV,   31.7789 Ry                                                             
                                                                                                    
   TITEL  = PAW_PBE O 08Apr2002                                                                     
   LULTRA =        F    use ultrasoft PP ?                                                          
   IUNSCR =        1    unscreen: 0-lin 1-nonlin 2-no                                               
   RPACOR =    1.200    partial core radius                                                         
   POMASS =   16.000; ZVAL   =    6.000    mass and valenz                                          
   RCORE  =    1.520    outmost cutoff radius                                                       
   RWIGS  =    1.550; RWIGS  =    0.820    wigner-seitz radius (au A)                               
   ENMAX  =  400.000; ENMIN  =  300.000 eV                                                          
   ICORE  =        2    local potential                                                             
   LCOR   =        T    correct aug charges                                                         
   LPAW   =        T    paw PP                                                                      
   EAUG   =  605.392                                                                                
   DEXC   =    0.000                                                                                
   RMAX   =    1.553    core radius for proj-oper                                                   
   RAUG   =    1.300    factor for augmentation sphere                                              
   RDEP   =    1.550    radius for radial grids                                                     
   RDEPT  =    1.329    core radius for aug-charge                                                  
                                                                                                    
   Atomic configuration                                                                             
    4 entries                                                                                       
     n  l   j            E        occ.                                                              
     1  0  0.50      -514.6923   2.0000                                                             
     2  0  0.50       -23.9615   2.0000                                                             
     2  1  0.50        -9.0305   4.0000                                                             
     3  2  1.50        -9.5241   0.0000                                                             
   Description                                                                                      
     l       E           TYP  RCUT    TYP  RCUT                                                     
     0    -23.9615318     23  1.200                                                                 
     0     -9.5240782     23  1.200                                                                 
     1     -9.0304911     23  1.520                                                                 
     1      8.1634956     23  1.520                                                                 
     2     -9.5240782      7  1.500                                                                 
  local pseudopotential read in
  partial core-charges read in
  partial kinetic energy density read in
  kinetic energy density of atom read in
  atomic valenz-charges read in
  non local Contribution for L=           0  read in
    real space projection operators read in
  non local Contribution for L=           0  read in
    real space projection operators read in
  non local Contribution for L=           1  read in
    real space projection operators read in
  non local Contribution for L=           1  read in
    real space projection operators read in
    PAW grid and wavefunctions read in
 
   number of l-projection  operators is LMAX  =           4
   number of lm-projection operators is LMMAX =           8
 
 POTCAR:    PAW_PBE H 15Jun2001                   
   SHA256 =  030f79b5d3ab3cf0e668861823c8fb652ff669f3e15e46930bd03bfd63a607b6 H/POTCAR              
   COPYR  = (c) Copyright 15Jun2001 Georg Kresse                                                    
   COPYR  = This file is part of the software VASP. Any use, copying, and all other rights are regul
   COPYR  = If you do not have a valid VASP license, you may not use, copy or distribute this file. 
   VRHFIN =H: ultrasoft test                                                                        
   LEXCH  = PE                                                                                      
   EATOM  =    12.4884 eV,    0.9179 Ry                                                             
                                                                                                    
   TITEL  = PAW_PBE H 15Jun2001                                                                     
   LULTRA =        F    use ultrasoft PP ?                                                          
   IUNSCR =        0    unscreen: 0-lin 1-nonlin 2-no                                               
   RPACOR =    0.000    partial core radius                                                         
   POMASS =    1.000; ZVAL   =    1.000    mass and valenz                                          
   RCORE  =    1.100    outmost cutoff radius                                                       
   RWIGS  =    0.700; RWIGS  =    0.370    wigner-seitz radius (au A)                               
   ENMAX  =  250.000; ENMIN  =  200.000 eV                                                          
   RCLOC  =    0.701    cutoff for local pot                                                        
   LCOR   =        T    correct aug charges                                                         
   LPAW   =        T    paw PP                                                                      
   EAUG   =  400.000                                                                                
   RMAX   =    1.123    core radius for proj-oper                                                   
   RAUG   =    1.200    factor for augmentation sphere                                              
   RDEP   =    1.112    radius for radial grids                                                     
   RDEPT  =    0.926    core radius for aug-charge                                                  
                                                                                                    
   Atomic configuration                                                                             
    2 entries                                                                                       
     n  l   j            E        occ.                                                              
     1  0  0.50        -6.4927   1.0000                                                             
     2  1  0.50        -3.4015   0.0000                                                             
   Description                                                                                      
     l       E           TYP  RCUT    TYP  RCUT                                                     
     0     -6.4927494     23  1.100                                                                 
     0      6.8029130     23  1.100                                                                 
     1     -4.0817478     23  1.100                                                                 
  local pseudopotential read in
  atomic valenz-charges read in
  non local Contribution for L=           0  read in
    real space projection operators read in
  non local Contribution for L=           0  read in
    real space projection operators read in
  non local Contribution for L=           1  read in
    real space projection operators read in
    PAW grid and wavefunctions read in
 
   number of l-projection  operators is LMAX  =           3
   number of lm-projection operators is LMMAX =           5
 
 Optimization of the real space projectors (new method)

 maximal supplied QI-value         = 25.13
 optimisation between [QCUT,QGAM] = [ 12.32, 24.88] = [ 42.47,173.37] Ry 
 Optimized for a Real-space Cutoff    1.16 Angstroem

   l    n(q)    QCUT    max X(q) W(low)/X(q) W(high)/X(q)  e(spline) 
   0      9    12.315   115.676    0.19E-03    0.80E-05    0.34E-06
   0      9    12.315    87.132    0.19E-03    0.82E-05    0.34E-06
   1      8    12.315     4.429    0.18E-03    0.13E-03    0.22E-06
   1      8    12.315     2.733    0.14E-03    0.10E-03    0.18E-06
 Optimization of the real space projectors (new method)

 maximal supplied QI-value         = 24.76
 optimisation between [QCUT,QGAM] = [ 12.38, 25.00] = [ 42.90,175.06] Ry 
 Optimized for a Real-space Cutoff    1.16 Angstroem

   l    n(q)    QCUT    max X(q) W(low)/X(q) W(high)/X(q)  e(spline) 
   0      9    12.378    20.381    0.16E-03    0.67E-05    0.31E-06
   0      9    12.378    15.268    0.17E-03    0.81E-05    0.33E-06
   1      8    12.378     5.964    0.20E-03    0.16E-03    0.30E-06
   1      8    12.378     5.382    0.18E-03    0.14E-03    0.26E-06
 Optimization of the real space projectors (new method)

 maximal supplied QI-value         = 34.20
 optimisation between [QCUT,QGAM] = [ 12.31, 24.97] = [ 42.46,174.58] Ry 
 Optimized for a Real-space Cutoff    1.13 Angstroem

   l    n(q)    QCUT    max X(q) W(low)/X(q) W(high)/X(q)  e(spline) 
   0      8    12.313    19.460    0.10E-03    0.25E-03    0.27E-06
   0      8    12.313    12.209    0.92E-04    0.23E-03    0.26E-06
   1      8    12.313     4.655    0.24E-03    0.28E-03    0.15E-06
  PAW_PBE C 08Apr2002                   :
 energy of atom  1       EATOM= -147.1560
 kinetic energy error for atom=    0.0057 (will be added to EATOM!!)
  PAW_PBE O 08Apr2002                   :
 energy of atom  2       EATOM= -432.3788
 kinetic energy error for atom=    0.0168 (will be added to EATOM!!)
  PAW_PBE H 15Jun2001                   :
 energy of atom  3       EATOM=  -12.4884
 kinetic energy error for atom=    0.0004 (will be added to EATOM!!)
 
 
 POSCAR: Generated by VASPKIT code
  positions in direct lattice
  No initial velocities read in


 exchange-correlation table for PE
   RHO(1)=    0.500       N(1)  =     2000
   RHO(2)=  100.500       N(2)  =     4000
 


--------------------------------------------------------------------------------------------------------


 ion  position               nearest neighbor table
   1  0.175  0.173  0.427-   4 1.41   3 1.41   2 1.48
   2  0.173  0.174  0.404-   6 1.41   5 1.41   1 1.48
   3  0.109  0.239  0.440-  19 1.09   7 1.39   1 1.41
   4  0.242  0.107  0.439-  20 1.09   8 1.39   1 1.41
   5  0.239  0.109  0.392-  21 1.09   9 1.39   2 1.41
   6  0.104  0.240  0.392-  22 1.09  10 1.39   2 1.41
   7  0.110  0.238  0.462-  23 1.09   3 1.39  11 1.40
   8  0.245  0.105  0.461-  24 1.09   4 1.39  11 1.40
   9  0.238  0.110  0.369-  25 1.09   5 1.39  12 1.40
  10  0.102  0.242  0.370-  26 1.09   6 1.39  12 1.40
  11  0.178  0.171  0.473-   7 1.40   8 1.40  13 1.48
  12  0.169  0.176  0.358-   9 1.40  10 1.40  14 1.48
  13  0.177  0.174  0.497-  16 1.22  15 1.37  11 1.48
  14  0.170  0.174  0.335-  18 1.22  17 1.37  12 1.48
  15  0.247  0.105  0.506-  27 0.98  13 1.37
  16  0.121  0.230  0.508-  13 1.22
  17  0.101  0.242  0.326-  28 0.98  14 1.37
  18  0.227  0.118  0.324-  14 1.22
  19  0.055  0.292  0.432-   3 1.09
  20  0.295  0.054  0.430-   4 1.09
  21  0.294  0.056  0.400-   5 1.09
  22  0.051  0.292  0.401-   6 1.09
  23  0.059  0.289  0.471-   7 1.09
  24  0.298  0.053  0.470-   8 1.09
  25  0.289  0.059  0.360-   9 1.09
  26  0.049  0.293  0.362-  10 1.09
  27  0.239  0.113  0.521-  15 0.98
  28  0.108  0.234  0.310-  17 0.98
 
  LATTYP: Found a simple tetragonal cell.
 ALAT       =    12.7800006866
 C/A-ratio  =     4.8855929668
  
  Lattice vectors:
  
 A1 = (  12.7800006866,   0.0000000000,   0.0000000000)
 A2 = (   0.0000000000,  12.7800006866,   0.0000000000)
 A3 = (   0.0000000000,   0.0000000000,  62.4378814697)


Analysis of symmetry for initial positions (statically):
=====================================================================
 Subroutine PRICEL returns:
 Original cell was already a primitive cell.
 

 Routine SETGRP: Setting up the symmetry group for a 
 simple tetragonal supercell.


 Subroutine GETGRP returns: Found  1 space group operations
 (whereof  1 operations were pure point group operations)
 out of a pool of 16 trial point group operations.


The static configuration has the point symmetry C_1 .


Analysis of symmetry for dynamics (positions and initial velocities):
=====================================================================
 Subroutine PRICEL returns:
 Original cell was already a primitive cell.
 

 Routine SETGRP: Setting up the symmetry group for a 
 simple tetragonal supercell.


 Subroutine GETGRP returns: Found  1 space group operations
 (whereof  1 operations were pure point group operations)
 out of a pool of 16 trial point group operations.


The dynamic configuration has the point symmetry C_1 .


Analysis of constrained symmetry for selective dynamics:
=====================================================================
 Subroutine PRICEL returns:
 Original cell was already a primitive cell.
 

 Routine SETGRP: Setting up the symmetry group for a 
 simple tetragonal supercell.


 Subroutine GETGRP returns: Found  1 space group operations
 (whereof  1 operations were pure point group operations)
 out of a pool of 16 trial point group operations.


The constrained configuration has the point symmetry C_1 .


Analysis of structural, dynamic, and magnetic symmetry:
=====================================================================
 Subroutine PRICEL returns:
 Original cell was already a primitive cell.
 

 Routine SETGRP: Setting up the symmetry group for a 
 simple tetragonal supercell.


 Subroutine GETGRP returns: Found  1 space group operations
 (whereof  1 operations were pure point group operations)
 out of a pool of 16 trial point group operations.


The overall configuration has the point symmetry C_1 .


 Subroutine INISYM returns: Found  1 space group operations
 (whereof  1 operations are pure point group operations),
 and found     1 'primitive' translations


----------------------------------------------------------------------------------------

                                     Primitive cell                                     

  volume of cell :   10197.8804

  direct lattice vectors                    reciprocal lattice vectors
    12.780000687  0.000000000  0.000000000     0.078247257  0.000000000  0.000000000
     0.000000000 12.780000687  0.000000000     0.000000000  0.078247257  0.000000000
     0.000000000  0.000000000 62.437881470     0.000000000  0.000000000  0.016015918

  length of vectors
    12.780000687 12.780000687 62.437881470     0.078247257  0.078247257  0.016015918

  position of ions in fractional coordinates (direct lattice)
     0.174582300  0.173233421  0.427493390
     0.172737257  0.174175015  0.403724534
     0.108545174  0.238922990  0.439619471
     0.242442829  0.106638084  0.438943014
     0.239251487  0.108950719  0.391602499
     0.104435084  0.240301698  0.392270832
     0.110152357  0.238196021  0.461849357
     0.244559370  0.105463243  0.461198591
     0.237658671  0.109645877  0.369373090
     0.102414200  0.241527073  0.370014464
     0.178251223  0.171419993  0.472934619
     0.169178755  0.176011366  0.358283070
     0.177057187  0.173656986  0.496668359
     0.170488817  0.173820752  0.334549400
     0.246792162  0.105056470  0.505621943
     0.120806108  0.229812277  0.507588865
     0.100573618  0.242202015  0.325585041
     0.226989559  0.117880347  0.323636745
     0.054544916  0.292005772  0.431656817
     0.295102706  0.054217605  0.430439772
     0.293673775  0.056313916  0.399568149
     0.051312330  0.292268229  0.400770801
     0.058758437  0.289310733  0.471035165
     0.297840092  0.053210718  0.469600430
     0.289392762  0.058858189  0.360191364
     0.048830993  0.293451518  0.361607804
     0.239072693  0.113424107  0.521124088
     0.108403059  0.233873023  0.310084230

  ion indices of the primitive-cell ions
   primitive index   ion index
                 1           1
                 2           2
                 3           3
                 4           4
                 5           5
                 6           6
                 7           7
                 8           8
                 9           9
                10          10
                11          11
                12          12
                13          13
                14          14
                15          15
                16          16
                17          17
                18          18
                19          19
                20          20
                21          21
                22          22
                23          23
                24          24
                25          25
                26          26
                27          27
                28          28

----------------------------------------------------------------------------------------

 
 
 KPOINTS: KPOINTS                                 

Automatic generation of k-mesh.
 Grid dimensions read from file:
 generate k-points for:    2    2    1

 Generating k-lattice:

  Cartesian coordinates                     Fractional coordinates (reciprocal lattice)
     0.039123629  0.000000000  0.000000000     0.500000000  0.000000000  0.000000000
     0.000000000  0.039123629  0.000000000     0.000000000  0.500000000  0.000000000
     0.000000000  0.000000000  0.016015918     0.000000000  0.000000000  1.000000000

  Length of vectors
     0.039123629  0.039123629  0.016015918

  Shift w.r.t. Gamma in fractional coordinates (k-lattice)
     0.000000000  0.000000000  0.000000000

 
 Subroutine IBZKPT returns following result:
 ===========================================
 
 Found      4 irreducible k-points:
 
 Following reciprocal coordinates:
            Coordinates               Weight
  0.000000  0.000000  0.000000      1.000000
  0.500000  0.000000  0.000000      1.000000
  0.000000  0.500000  0.000000      1.000000
  0.500000  0.500000  0.000000      1.000000
 
 Following cartesian coordinates:
            Coordinates               Weight
  0.000000  0.000000  0.000000      1.000000
  0.039124  0.000000  0.000000      1.000000
  0.000000  0.039124  0.000000      1.000000
  0.039124  0.039124  0.000000      1.000000
 


--------------------------------------------------------------------------------------------------------




 Dimension of arrays:
   k-points           NKPTS =      4   k-points in BZ     NKDIM =      4   number of bands    NBANDS=     65
   number of dos      NEDOS =    301   number of ions     NIONS =     28
   non local maximal  LDIM  =      4   non local SUM 2l+1 LMDIM =      8
   total plane-waves  NPLWV = ******
   max r-space proj   IRMAX =   3798   max aug-charges    IRDMAX=   7618
   dimension x,y,z NGX =   108 NGY =  108 NGZ =  500
   dimension x,y,z NGXF=   216 NGYF=  216 NGZF= 1000
   support grid    NGXF=   216 NGYF=  216 NGZF= 1000
   ions per type =              14   4  10
   NGX,Y,Z   is equivalent  to a cutoff of  14.05, 14.05, 13.31 a.u.
   NGXF,Y,Z  is equivalent  to a cutoff of  28.10, 28.10, 26.63 a.u.

 SYSTEM =  CoO Bulk Cubic Fm3m                     
 POSCAR =  Generated by VASPKIT code               

 Startparameter for this run:
   NWRITE =      2    write-flag & timer
   PREC   = accura    normal or accurate (medium, high low for compatibility)
   ISTART =      0    job   : 0-new  1-cont  2-samecut
   ICHARG =      2    charge: 1-file 2-atom 10-const
   ISPIN  =      2    spin polarized calculation?
   LNONCOLLINEAR =      F non collinear calculations
   LSORBIT =      F    spin-orbit coupling
   INIWAV =      1    electr: 0-lowe 1-rand  2-diag
   LASPH  =      T    aspherical Exc in radial PAW
 Electronic Relaxation 1
   ENCUT  =  600.0 eV  44.10 Ry    6.64 a.u.  25.52 25.52124.70*2*pi/ulx,y,z
   ENINI  =  600.0     initial cutoff
   ENAUG  =  644.9 eV  augmentation charge cutoff
   NELM   =    900;   NELMIN=  5; NELMDL= -5     # of ELM steps 
   EDIFF  = 0.1E-06   stopping-criterion for ELM
   LREAL  =      T    real-space projection
   NLSPLINE    = F    spline interpolate recip. space projectors
   LCOMPAT=      F    compatible to vasp.4.4
   GGA_COMPAT  = T    GGA compatible to vasp.4.4-vasp.4.6
   LMAXPAW     = -100 max onsite density
   LMAXMIX     =    2 max onsite mixed and CHGCAR
   VOSKOWN=      0    Vosko Wilk Nusair interpolation
   ROPT   =   -0.00025  -0.00025  -0.00025
 Ionic relaxation
   EDIFFG = -.1E-02   stopping-criterion for IOM
   NSW    =      0    number of steps for IOM
   NBLOCK =      1;   KBLOCK =      1    inner block; outer block 
   IBRION =     -1    ionic relax: 0-MD 1-quasi-New 2-CG
   NFREE  =      0    steps in history (QN), initial steepest desc. (CG)
   ISIF   =      2    stress and relaxation
   IWAVPR =     10    prediction:  0-non 1-charg 2-wave 3-comb
   ISYM   =      2    0-nonsym 1-usesym 2-fastsym
   LCORR  =      T    Harris-Foulkes like correction to forces

   POTIM  = 0.5000    time-step for ionic-motion
   TEIN   =    0.0    initial temperature
   TEBEG  =    0.0;   TEEND  =   0.0 temperature during run
   SMASS  =  -3.00    Nose mass-parameter (am)
   estimated Nose-frequenzy (Omega)   =  0.10E-29 period in steps = 0.13E+47 mass=  -0.373E-26a.u.
   SCALEE = 1.0000    scale energy and forces
   NPACO  =    256;   APACO  = 10.0  distance and # of slots for P.C.
   PSTRESS=    0.0 pullay stress

  Mass of Ions in am
   POMASS =  12.01 16.00  1.00
  Ionic Valenz
   ZVAL   =   4.00  6.00  1.00
  Atomic Wigner-Seitz radii
   RWIGS  =  -1.00 -1.00 -1.00
  virtual crystal weights 
   VCA    =   1.00  1.00  1.00
   NELECT =      90.0000    total number of electrons
   NUPDOWN=      -1.0000    fix difference up-down

 DOS related values:
   EMIN   =  10.00;   EMAX   =-10.00  energy-range for DOS
   EFERMI =   0.00;   METHOD = LEGACY      
   ISMEAR =     0;   SIGMA  =   0.03  broadening in eV -4-tet -1-fermi 0-gaus

 Electronic relaxation 2 (details)
   IALGO  =     38    algorithm
   LDIAG  =      T    sub-space diagonalisation (order eigenvalues)
   LSUBROT=      F    optimize rotation matrix (better conditioning)
   TURBO    =      0    0=normal 1=particle mesh
   IRESTART =      0    0=no restart 2=restart with 2 vectors
   NREBOOT  =      0    no. of reboots
   NMIN     =      0    reboot dimension
   EREF     =   0.00    reference energy to select bands
   IMIX   =      4    mixing-type and parameters
     AMIX     =   0.40;   BMIX     =  1.00
     AMIX_MAG =   1.60;   BMIX_MAG =  1.00
     AMIN     =   0.10
     WC   =   100.;   INIMIX=   1;  MIXPRE=   1;  MAXMIX= -45

 Intra band minimization:
   WEIMIN = 0.0000     energy-eigenvalue tresh-hold
   EBREAK =  0.38E-09  absolut break condition
   DEPER  =   0.30     relativ break condition  

   TIME   =   0.40     timestep for ELM

  volume/ion in A,a.u.               =     364.21      2457.81
  Fermi-wavevector in a.u.,A,eV,Ry     =   0.338313  0.639319  1.557267  0.114456
  Thomas-Fermi vector in A             =   1.240262
 
 Write flags
   LWAVE        =      F    write WAVECAR
   LDOWNSAMPLE  =      F    k-point downsampling of WAVECAR
   LCHARG       =      F    write CHGCAR
   LVTOT        =      F    write LOCPOT, total local potential
   LVHAR        =      F    write LOCPOT, Hartree potential only
   WRT_POTENTIAL= false  ! write potential to hdf5 file
   LELF         =      F    write electronic localiz. function (ELF)
   LORBIT       =     11    0 simple, 1 ext, 2 COOP (PROOUT), +10 PAW based schemes


 Dipole corrections
   LMONO      =      F    monopole corrections only (constant potential shift)
   LDIPOL     =      F    correct potential (dipole corrections)
   IDIPOL     =      0    1-x, 2-y, 3-z, 4-all directions 
   EPSILON    =  1.0000000 bulk dielectric constant
   LVACPOTAV  =      F  vacuum potentials using an averaging scheme for the charge density
   VACPOTFLAT =  0.1000000 required flatness to determine vacuum potential
 LDA+U is selected, type is set to LDAUTYPE =  2
   angular momentum for each species LDAUL =    -1   -1   -1
   U (eV)           for each species LDAUU =   0.0  0.0  0.0
   J (eV)           for each species LDAUJ =   0.0  0.0  0.0
 Exchange correlation treatment:
   GGA     = PE    functional components
   XC_C    = 1    coefficients multiplying the functional components
   LIBXC   =     F    Libxc                    
   VOSKOWN =     0    Vosko Wilk Nusair interpolation
   LHFCALC =     F    Hartree Fock is set to
   LHFONE  =     F    Hartree Fock one center treatment
   AEXX    =    0.0000 exact exchange contribution

 Parameters of functionals:
   PE:
     No parameter
 
 Van der Waals corrections
   IVDW    =     0    specifies the selected vdW correction

 Linear response parameters
   LEPSILON=     F    determine dielectric tensor
   LRPA    =     F    only Hartree local field effects (RPA)
   LNABLA  =     F    use nabla operator in PAW spheres
   LVEL    =     F    velocity operator in full k-point grid
   CSHIFT  =0.1000    complex shift for real part using Kramers Kronig
   OMEGAMAX=  -1.0    maximum frequency
   DEG_THRESHOLD= 0.2000000E-02 threshold for treating states as degnerate
   RTIME   =   -0.100 relaxation time in fs
  (WPLASMAI=    0.000 imaginary part of plasma frequency in eV, 0.658/RTIME)
   DFIELD  = 0.0000000 0.0000000 0.0000000 field for delta impulse in time
 
  Optional k-point grid parameters
   LKPOINTS_OPT  =     F    use optional k-point grid
   KPOINTS_OPT_MODE=     1    mode for optional k-point grid
 
 Orbital magnetization related:
   ORBITALMAG=     F  switch on orbital magnetization
   LCHIMAG   =     F  perturbation theory with respect to B field
   DQ        =  0.001000  dq finite difference perturbation B field
   LLRAUG    =     F  two centre corrections for induced B field
   LBONE     =     F  B-component reconstruction in AE one-centre
   LVGVCALC  =     T  calculate vGv susceptibility
   LVGVAPPL  =     F  apply vGv susceptibility instead of pGv for G=0

 Random number generation:
   RANDOM_GENERATOR = DEFAULT
   PCG_SEED         = not used
 -----------------------------------------------------------------------------
|                                                                             |
|           W    W    AA    RRRRR   N    N  II  N    N   GGGG   !!!           |
|           W    W   A  A   R    R  NN   N  II  NN   N  G    G  !!!           |
|           W    W  A    A  R    R  N N  N  II  N N  N  G       !!!           |
|           W WW W  AAAAAA  RRRRR   N  N N  II  N  N N  G  GGG   !            |
|           WW  WW  A    A  R   R   N   NN  II  N   NN  G    G                |
|           W    W  A    A  R    R  N    N  II  N    N   GGGG   !!!           |
|                                                                             |
|     One of the lattice vectors is very long (>50 A), but AMIN is rather     |
|     large. This can spoil convergence since charge sloshing might occur     |
|     along the long lattice vector. If problems with convergence are         |
|     observed, try to decrease AMIN to a smaller value (e.g. 0.01).          |
|     Note: This warning only applies if the self-consistency cycle is        |
|     used.                                                                   |
|                                                                             |
 -----------------------------------------------------------------------------



--------------------------------------------------------------------------------------------------------


 Static calculation
 charge density and potential will be updated during run
 spin polarized calculation
 Variant of blocked Davidson
 Davidson routine will perform the subspace rotation
 perform sub-space diagonalisation
    after iterative eigenvector-optimisation
 modified Broyden-mixing scheme, WC =      100.0
 initial mixing is a Kerker type mixing with AMIX =  0.4000 and BMIX =      1.0000
 Hartree-type preconditioning will be used
 using additional bands           20
 real space projection scheme for non local part
 use partial core corrections
 calculate Harris-corrections to forces 
   (improved forces if not selfconsistent)
 use gradient corrections 
 use of overlap-Matrix (Vanderbilt PP)
 Gauss-broadening in eV      SIGMA  =   0.03


--------------------------------------------------------------------------------------------------------


  energy-cutoff  :      600.00
  volume of cell :    10197.88
      direct lattice vectors                 reciprocal lattice vectors
    12.780000687  0.000000000  0.000000000     0.078247257  0.000000000  0.000000000
     0.000000000 12.780000687  0.000000000     0.000000000  0.078247257  0.000000000
     0.000000000  0.000000000 62.437881470     0.000000000  0.000000000  0.016015918

  length of vectors
    12.780000687 12.780000687 62.437881470     0.078247257  0.078247257  0.016015918


 
 k-points in units of 2pi/SCALE and weight: KPOINTS                                 
   0.00000000  0.00000000  0.00000000       0.250
   0.03912363  0.00000000  0.00000000       0.250
   0.00000000  0.03912363  0.00000000       0.250
   0.03912363  0.03912363  0.00000000       0.250
 
 k-points in reciprocal lattice and weights: KPOINTS                                 
   0.00000000  0.00000000  0.00000000       0.250
   0.50000000  0.00000000  0.00000000       0.250
   0.00000000  0.50000000  0.00000000       0.250
   0.50000000  0.50000000  0.00000000       0.250
 
 position of ions in fractional coordinates (direct lattice) 
   0.17458230  0.17323342  0.42749339
   0.17273726  0.17417501  0.40372453
   0.10854517  0.23892299  0.43961947
   0.24244283  0.10663808  0.43894301
   0.23925149  0.10895072  0.39160250
   0.10443508  0.24030170  0.39227083
   0.11015236  0.23819602  0.46184936
   0.24455937  0.10546324  0.46119859
   0.23765867  0.10964588  0.36937309
   0.10241420  0.24152707  0.37001446
   0.17825122  0.17141999  0.47293462
   0.16917876  0.17601137  0.35828307
   0.17705719  0.17365699  0.49666836
   0.17048882  0.17382075  0.33454940
   0.24679216  0.10505647  0.50562194
   0.12080611  0.22981228  0.50758887
   0.10057362  0.24220202  0.32558504
   0.22698956  0.11788035  0.32363675
   0.05454492  0.29200577  0.43165682
   0.29510271  0.05421760  0.43043977
   0.29367378  0.05631392  0.39956815
   0.05131233  0.29226823  0.40077080
   0.05875844  0.28931073  0.47103517
   0.29784009  0.05321072  0.46960043
   0.28939276  0.05885819  0.36019136
   0.04883099  0.29345152  0.36160780
   0.23907269  0.11342411  0.52112409
   0.10840306  0.23387302  0.31008423
 
 position of ions in cartesian coordinates  (Angst):
   2.23116191  2.21392324 26.69178159
   2.20758227  2.22595681 25.20770461
   1.38720740  3.05343597 27.44890843
   3.09841952  1.36283479 27.40667186
   3.05763416  1.39239026 24.45083043
   1.33468045  3.07105587 24.49255972
   1.40774719  3.04414532 28.83689540
   3.12546891  1.34782032 28.79626298
   3.03727797  1.40127439 23.06287320
   1.30885354  3.08671616 23.10291926
   2.27805076  2.19074763 29.52903568
   2.16210461  2.24942538 22.37043585
   2.26279097  2.21933640 31.01092012
   2.17884720  2.22142932 20.88855580
   3.15400400  1.34262176 31.56996297
   1.54390214  2.93700105 31.69277340
   1.28533091  3.09534192 20.32884020
   2.90092672  1.50651091 20.20719273
   0.69708407  3.73183397 26.95173717
   3.77141278  0.69290103 26.87574748
   3.75315105  0.71969188 24.94818871
   0.65577162  3.73518816 25.02327978
   0.75093287  3.69739136 29.41043781
   3.80639658  0.68003301 29.32085599
   3.69843970  0.75220770 22.48958568
   0.62406013  3.75031060 22.57802522
   3.05534918  1.44956017 32.53788404
   1.38539117  2.98889740 19.36100240
 


--------------------------------------------------------------------------------------------------------


 k-point     1 :   0.0000 0.0000 0.0000  plane waves:  340365
 k-point     2 :   0.5000 0.0000 0.0000  plane waves:  340256
 k-point     3 :   0.0000 0.5000 0.0000  plane waves:  340256
 k-point     4 :   0.5000 0.5000 0.0000  plane waves:  340128

 maximum and minimum number of plane-waves per node :     42620    42454

 maximum number of plane-waves:    340365
 maximum index in each direction: 
   IXMAX=   25   IYMAX=   25   IZMAX=  124
   IXMIN=  -26   IYMIN=  -26   IZMIN= -124


 real space projection operators:
  total allocation   :       5393.94 KBytes
  max/ min on nodes  :        700.43        658.97


 parallel 3D FFT for wavefunctions:
    minimum data exchange during FFTs selected (reduces bandwidth)
 parallel 3D FFT for charge:
    minimum data exchange during FFTs selected (reduces bandwidth)


 total amount of memory used by VASP MPI-rank0   220143. kBytes
=======================================================================

   base      :      30000. kBytes
   nonlr-proj:       2630. kBytes
   fftplans  :      42563. kBytes
   grid      :     117645. kBytes
   one-center:         24. kBytes
   wavefun   :      27281. kBytes
 
     INWAV:  cpu time      0.0000: real time      0.0005
 Broyden mixing: mesh for mixing (old mesh)
   NGX = 51   NGY = 51   NGZ =249
  (NGX  =216   NGY  =216   NGZ  =***)
  gives a total of 647649 points

 initial charge density was supplied:
 charge density of overlapping atoms calculated
 number of electron      90.0000000 magnetization       0.0000000
 keeping initial charge density in first step


--------------------------------------------------------------------------------------------------------


 Maximum index for non-local projection operator          470
 Maximum index for augmentation-charges            0 (set IRDMAX)


--------------------------------------------------------------------------------------------------------


 First call to EWALD:  gamma=   0.082
 Maximum number of real-space cells 4x 4x 1
 Maximum number of reciprocal cells 2x 2x 7

    FEWALD:  cpu time      0.0232: real time      0.0236


--------------------------------------- Ionic step        1  -------------------------------------------




--------------------------------------- Iteration      1(   1)  ---------------------------------------


    POTLOK:  cpu time      1.0931: real time      1.1167
    SETDIJ:  cpu time      0.1063: real time      0.1079
     EDDAV:  cpu time      5.8155: real time      5.9081
       DOS:  cpu time      0.0042: real time      0.0060
    --------------------------------------------
      LOOP:  cpu time      7.0190: real time      7.1388

 eigenvalue-minimisations  :  1274
 total energy-change (2. order) : 0.8839727E+03  (-0.2075865E+04)
 number of electron      90.0000000 magnetization       0.0000000
 augmentation part       90.0000000 magnetization       0.0000000

 Free energy of the ion-electron system (eV)
  ---------------------------------------------------
  alpha Z        PSCENC =         3.56996085
  Ewald energy   TEWEN  =     19029.41973238
  -Hartree energ DENC   =    -21873.62958086
  -exchange      EXHF   =         0.00000000
  -V(xc)+E(xc)   XCENC  =       316.19885563
  PAW double counting   =      2926.84681501    -2942.10195683
  entropy T*S    EENTRO =        -0.01282310
  eigenvalues    EBANDS =      -490.75009884
  atomic energy  EATOM  =      3914.43183447
  Solvation  Ediel_sol  =         0.00000000
  ---------------------------------------------------
  free energy    TOTEN  =       883.97273868 eV

  energy without entropy =      883.98556178  energy(sigma->0) =      883.97915023


--------------------------------------------------------------------------------------------------------




--------------------------------------- Iteration      1(   2)  ---------------------------------------


     EDDAV:  cpu time     10.7243: real time     10.7963
       DOS:  cpu time      0.0604: real time      0.0607
    --------------------------------------------
      LOOP:  cpu time     10.7847: real time     10.8570

 eigenvalue-minimisations  :  1690
 total energy-change (2. order) :-0.5410786E+03  (-0.5021755E+03)
 number of electron      90.0000000 magnetization       0.0000000
 augmentation part       90.0000000 magnetization       0.0000000

 Free energy of the ion-electron system (eV)
  ---------------------------------------------------
  alpha Z        PSCENC =         3.56996085
  Ewald energy   TEWEN  =     19029.41973238
  -Hartree energ DENC   =    -21873.62958086
  -exchange      EXHF   =         0.00000000
  -V(xc)+E(xc)   XCENC  =       316.19885563
  PAW double counting   =      2926.84681501    -2942.10195683
  entropy T*S    EENTRO =        -0.00967249
  eigenvalues    EBANDS =     -1031.83189464
  atomic energy  EATOM  =      3914.43183447
  Solvation  Ediel_sol  =         0.00000000
  ---------------------------------------------------
  free energy    TOTEN  =       342.89409350 eV

  energy without entropy =      342.90376599  energy(sigma->0) =      342.89892974


--------------------------------------------------------------------------------------------------------




--------------------------------------- Iteration      1(   3)  ---------------------------------------


     EDDAV:  cpu time      7.1310: real time      7.1971
       DOS:  cpu time      0.0021: real time      0.0022
    --------------------------------------------
      LOOP:  cpu time      7.1332: real time      7.1993

 eigenvalue-minimisations  :  1560
 total energy-change (2. order) :-0.4599401E+03  (-0.4512119E+03)
 number of electron      90.0000000 magnetization       0.0000000
 augmentation part       90.0000000 magnetization       0.0000000

 Free energy of the ion-electron system (eV)
  ---------------------------------------------------
  alpha Z        PSCENC =         3.56996085
  Ewald energy   TEWEN  =     19029.41973238
  -Hartree energ DENC   =    -21873.62958086
  -exchange      EXHF   =         0.00000000
  -V(xc)+E(xc)   XCENC  =       316.19885563
  PAW double counting   =      2926.84681501    -2942.10195683
  entropy T*S    EENTRO =        -0.00000000
  eigenvalues    EBANDS =     -1491.78165769
  atomic energy  EATOM  =      3914.43183447
  Solvation  Ediel_sol  =         0.00000000
  ---------------------------------------------------
  free energy    TOTEN  =      -117.04599706 eV

  energy without entropy =     -117.04599706  energy(sigma->0) =     -117.04599706


--------------------------------------------------------------------------------------------------------




--------------------------------------- Iteration      1(   4)  ---------------------------------------


     EDDAV:  cpu time      8.6805: real time      8.7318
       DOS:  cpu time      0.0820: real time      0.0824
    --------------------------------------------
      LOOP:  cpu time      8.7625: real time      8.8142

 eigenvalue-minimisations  :  1274
 total energy-change (2. order) :-0.8841999E+02  (-0.8821137E+02)
 number of electron      90.0000000 magnetization       0.0000000
 augmentation part       90.0000000 magnetization       0.0000000

 Free energy of the ion-electron system (eV)
  ---------------------------------------------------
  alpha Z        PSCENC =         3.56996085
  Ewald energy   TEWEN  =     19029.41973238
  -Hartree energ DENC   =    -21873.62958086
  -exchange      EXHF   =         0.00000000
  -V(xc)+E(xc)   XCENC  =       316.19885563
  PAW double counting   =      2926.84681501    -2942.10195683
  entropy T*S    EENTRO =        -0.00000000
  eigenvalues    EBANDS =     -1580.20164394
  atomic energy  EATOM  =      3914.43183447
  Solvation  Ediel_sol  =         0.00000000
  ---------------------------------------------------
  free energy    TOTEN  =      -205.46598331 eV

  energy without entropy =     -205.46598331  energy(sigma->0) =     -205.46598331


--------------------------------------------------------------------------------------------------------




--------------------------------------- Iteration      1(   5)  ---------------------------------------


     EDDAV:  cpu time      6.4576: real time      6.5004
       DOS:  cpu time      0.0012: real time      0.0012
    CHARGE:  cpu time      0.6800: real time      0.6859
    MIXING:  cpu time      0.0313: real time      0.0331
    --------------------------------------------
      LOOP:  cpu time      7.1701: real time      7.2205

 eigenvalue-minimisations  :  1339
 total energy-change (2. order) :-0.2146655E+01  (-0.2133526E+01)
 number of electron      90.0000003 magnetization       0.0000000
 augmentation part        4.6213513 magnetization       0.0004759

 Broyden mixing:
  rms(total) = 0.22942E+01    rms(broyden)= 0.22939E+01
  rms(prec ) = 0.23141E+01
  weight for this iteration     100.00

 Free energy of the ion-electron system (eV)
  ---------------------------------------------------
  alpha Z        PSCENC =         3.56996085
  Ewald energy   TEWEN  =     19029.41973238
  -Hartree energ DENC   =    -21873.62958086
  -exchange      EXHF   =         0.00000000
  -V(xc)+E(xc)   XCENC  =       316.19885563
  PAW double counting   =      2926.84681501    -2942.10195683
  entropy T*S    EENTRO =        -0.00000000
  eigenvalues    EBANDS =     -1582.34829849
  atomic energy  EATOM  =      3914.43183447
  Solvation  Ediel_sol  =         0.00000000
  ---------------------------------------------------
  free energy    TOTEN  =      -207.61263787 eV

  energy without entropy =     -207.61263787  energy(sigma->0) =     -207.61263787


--------------------------------------------------------------------------------------------------------




--------------------------------------- Iteration      1(   6)  ---------------------------------------


    POTLOK:  cpu time      1.1574: real time      1.1640
    SETDIJ:  cpu time      0.1420: real time      0.1425
     EDDAV:  cpu time      6.1751: real time      6.2197
       DOS:  cpu time      0.0137: real time      0.0138
    CHARGE:  cpu time      0.7114: real time      0.7160
    MIXING:  cpu time      0.0383: real time      0.0406
    --------------------------------------------
      LOOP:  cpu time      8.2379: real time      8.2967

 eigenvalue-minimisations  :  1378
 total energy-change (2. order) : 0.1342407E+02  (-0.2778745E+01)
 number of electron      90.0000003 magnetization       0.0000000
 augmentation part        4.1418736 magnetization       0.0006832

 Broyden mixing:
  rms(total) = 0.11997E+01    rms(broyden)= 0.11996E+01
  rms(prec ) = 0.12081E+01
  weight for this iteration     100.00

 eigenvalues of (default mixing * dielectric matrix)
  average eigenvalue GAMMA=   1.3257
  1.3257

 Free energy of the ion-electron system (eV)
  ---------------------------------------------------
  alpha Z        PSCENC =         3.56996085
  Ewald energy   TEWEN  =     19029.41973238
  -Hartree energ DENC   =    -22038.34093325
  -exchange      EXHF   =         0.00000000
  -V(xc)+E(xc)   XCENC  =       324.29636373
  PAW double counting   =      4517.50850900    -4534.88758348
  entropy T*S    EENTRO =        -0.00000000
  eigenvalues    EBANDS =     -1410.18644828
  atomic energy  EATOM  =      3914.43183447
  Solvation  Ediel_sol  =         0.00000000
  ---------------------------------------------------
  free energy    TOTEN  =      -194.18856459 eV

  energy without entropy =     -194.18856459  energy(sigma->0) =     -194.18856459


--------------------------------------------------------------------------------------------------------




--------------------------------------- Iteration      1(   7)  ---------------------------------------


    POTLOK:  cpu time      1.1490: real time      1.1679
    SETDIJ:  cpu time      0.1418: real time      0.1424
     EDDAV:  cpu time      5.9821: real time      6.0218
       DOS:  cpu time      0.0010: real time      0.0010
    CHARGE:  cpu time      0.6615: real time      0.6654
    MIXING:  cpu time      0.0272: real time      0.0273
    --------------------------------------------
      LOOP:  cpu time      7.9625: real time      8.0257

 eigenvalue-minimisations  :  1352
 total energy-change (2. order) : 0.2936534E+01  (-0.7135360E+00)
 number of electron      90.0000003 magnetization       0.0000000
 augmentation part        4.1214894 magnetization       0.0001143

 Broyden mixing:
  rms(total) = 0.58176E+00    rms(broyden)= 0.58175E+00
  rms(prec ) = 0.58493E+00
  weight for this iteration     100.00

 eigenvalues of (default mixing * dielectric matrix)
  average eigenvalue GAMMA=   1.5407
  1.0089  2.0724

 Free energy of the ion-electron system (eV)
  ---------------------------------------------------
  alpha Z        PSCENC =         3.56996085
  Ewald energy   TEWEN  =     19029.41973238
  -Hartree energ DENC   =    -22135.65080347
  -exchange      EXHF   =         0.00000000
  -V(xc)+E(xc)   XCENC  =       328.56301962
  PAW double counting   =      6134.05276354    -6151.81008811
  entropy T*S    EENTRO =        -0.00000000
  eigenvalues    EBANDS =     -1313.82845000
  atomic energy  EATOM  =      3914.43183447
  Solvation  Ediel_sol  =         0.00000000
  ---------------------------------------------------
  free energy    TOTEN  =      -191.25203073 eV

  energy without entropy =     -191.25203073  energy(sigma->0) =     -191.25203073


--------------------------------------------------------------------------------------------------------




--------------------------------------- Iteration      1(   8)  ---------------------------------------


    POTLOK:  cpu time      1.1663: real time      1.1754
    SETDIJ:  cpu time      0.1413: real time      0.1418
     EDDAV:  cpu time      6.1179: real time      6.1558
       DOS:  cpu time      0.0011: real time      0.0011
    CHARGE:  cpu time      0.6582: real time      0.6618
    MIXING:  cpu time      0.0292: real time      0.0303
    --------------------------------------------
      LOOP:  cpu time      8.1141: real time      8.1662

 eigenvalue-minimisations  :  1352
 total energy-change (2. order) : 0.5685349E+00  (-0.1711131E+00)
 number of electron      90.0000003 magnetization       0.0000000
 augmentation part        4.0770856 magnetization      -0.0001915

 Broyden mixing:
  rms(total) = 0.19565E+00    rms(broyden)= 0.19563E+00
  rms(prec ) = 0.19737E+00
  weight for this iteration     100.00

 eigenvalues of (default mixing * dielectric matrix)
  average eigenvalue GAMMA=   1.5382
  2.2953  0.9319  1.3873

 Free energy of the ion-electron system (eV)
  ---------------------------------------------------
  alpha Z        PSCENC =         3.56996085
  Ewald energy   TEWEN  =     19029.41973238
  -Hartree energ DENC   =    -22196.23823468
  -exchange      EXHF   =         0.00000000
  -V(xc)+E(xc)   XCENC  =       331.41689125
  PAW double counting   =      7481.21191962    -7499.11857778
  entropy T*S    EENTRO =        -0.00000000
  eigenvalues    EBANDS =     -1255.37702192
  atomic energy  EATOM  =      3914.43183447
  Solvation  Ediel_sol  =         0.00000000
  ---------------------------------------------------
  free energy    TOTEN  =      -190.68349582 eV

  energy without entropy =     -190.68349582  energy(sigma->0) =     -190.68349582


--------------------------------------------------------------------------------------------------------




--------------------------------------- Iteration      1(   9)  ---------------------------------------


    POTLOK:  cpu time      1.1555: real time      1.1745
    SETDIJ:  cpu time      0.1404: real time      0.1410
     EDDAV:  cpu time      9.3537: real time      9.4034
       DOS:  cpu time      0.4008: real time      0.4030
    CHARGE:  cpu time      1.8707: real time      1.8819
    MIXING:  cpu time      0.0253: real time      0.0255
    --------------------------------------------
      LOOP:  cpu time     12.9464: real time     13.0293

 eigenvalue-minimisations  :  1352
 total energy-change (2. order) : 0.7840323E-01  (-0.1313700E-01)
 number of electron      90.0000003 magnetization       0.0000000
 augmentation part        4.0721118 magnetization       0.0000244

 Broyden mixing:
  rms(total) = 0.66943E-01    rms(broyden)= 0.66941E-01
  rms(prec ) = 0.69078E-01
  weight for this iteration     100.00

 eigenvalues of (default mixing * dielectric matrix)
  average eigenvalue GAMMA=   1.5526
  2.3799  1.8075  1.0116  1.0116

 Free energy of the ion-electron system (eV)
  ---------------------------------------------------
  alpha Z        PSCENC =         3.56996085
  Ewald energy   TEWEN  =     19029.41973238
  -Hartree energ DENC   =    -22210.62621759
  -exchange      EXHF   =         0.00000000
  -V(xc)+E(xc)   XCENC  =       331.93940459
  PAW double counting   =      7826.23308018    -7844.00987577
  entropy T*S    EENTRO =        -0.00000000
  eigenvalues    EBANDS =     -1241.56301168
  atomic energy  EATOM  =      3914.43183447
  Solvation  Ediel_sol  =         0.00000000
  ---------------------------------------------------
  free energy    TOTEN  =      -190.60509259 eV

  energy without entropy =     -190.60509259  energy(sigma->0) =     -190.60509259


--------------------------------------------------------------------------------------------------------




--------------------------------------- Iteration      1(  10)  ---------------------------------------


    POTLOK:  cpu time      1.1722: real time      1.1842
    SETDIJ:  cpu time      0.1416: real time      0.1425
     EDDAV:  cpu time      9.3851: real time      9.4372
       DOS:  cpu time      0.0012: real time      0.0012
    CHARGE:  cpu time      0.6670: real time      0.6710
    MIXING:  cpu time      0.0282: real time      0.0283
    --------------------------------------------
      LOOP:  cpu time     11.3952: real time     11.4645

 eigenvalue-minimisations  :  1404
 total energy-change (2. order) : 0.1914007E-01  (-0.4691826E-02)
 number of electron      90.0000003 magnetization       0.0000000
 augmentation part        4.0678112 magnetization      -0.0000927

 Broyden mixing:
  rms(total) = 0.32539E-01    rms(broyden)= 0.32530E-01
  rms(prec ) = 0.34953E-01
  weight for this iteration     100.00

 eigenvalues of (default mixing * dielectric matrix)
  average eigenvalue GAMMA=   1.3892
  2.2464  1.9203  0.9579  0.9579  0.8637

 Free energy of the ion-electron system (eV)
  ---------------------------------------------------
  alpha Z        PSCENC =         3.56996085
  Ewald energy   TEWEN  =     19029.41973238
  -Hartree energ DENC   =    -22220.34759080
  -exchange      EXHF   =         0.00000000
  -V(xc)+E(xc)   XCENC  =       332.13108919
  PAW double counting   =      7901.51679110    -7919.21826879
  entropy T*S    EENTRO =        -0.00000000
  eigenvalues    EBANDS =     -1232.08950089
  atomic energy  EATOM  =      3914.43183447
  Solvation  Ediel_sol  =         0.00000000
  ---------------------------------------------------
  free energy    TOTEN  =      -190.58595251 eV

  energy without entropy =     -190.58595251  energy(sigma->0) =     -190.58595251


--------------------------------------------------------------------------------------------------------




--------------------------------------- Iteration      1(  11)  ---------------------------------------


    POTLOK:  cpu time      1.1588: real time      1.1722
    SETDIJ:  cpu time      3.1678: real time      3.1839
     EDDAV:  cpu time      6.2170: real time      6.2560
       DOS:  cpu time      0.0010: real time      0.0010
    CHARGE:  cpu time      0.6660: real time      0.6698
    MIXING:  cpu time      0.0272: real time      0.0274
    --------------------------------------------
      LOOP:  cpu time     11.2379: real time     11.3103

 eigenvalue-minimisations  :  1443
 total energy-change (2. order) : 0.1241265E-02  (-0.5989305E-03)
 number of electron      90.0000003 magnetization       0.0000000
 augmentation part        4.0687255 magnetization      -0.0000030

 Broyden mixing:
  rms(total) = 0.21411E-01    rms(broyden)= 0.21409E-01
  rms(prec ) = 0.24139E-01
  weight for this iteration     100.00

 eigenvalues of (default mixing * dielectric matrix)
  average eigenvalue GAMMA=   1.4476
  2.2347  2.2347  1.2288  1.2288  0.8791  0.8791

 Free energy of the ion-electron system (eV)
  ---------------------------------------------------
  alpha Z        PSCENC =         3.56996085
  Ewald energy   TEWEN  =     19029.41973238
  -Hartree energ DENC   =    -22223.21216476
  -exchange      EXHF   =         0.00000000
  -V(xc)+E(xc)   XCENC  =       332.14532242
  PAW double counting   =      7879.32564438    -7897.01897514
  entropy T*S    EENTRO =        -0.00000000
  eigenvalues    EBANDS =     -1229.24606584
  atomic energy  EATOM  =      3914.43183447
  Solvation  Ediel_sol  =         0.00000000
  ---------------------------------------------------
  free energy    TOTEN  =      -190.58471125 eV

  energy without entropy =     -190.58471125  energy(sigma->0) =     -190.58471125


--------------------------------------------------------------------------------------------------------




--------------------------------------- Iteration      1(  12)  ---------------------------------------


    POTLOK:  cpu time      1.1652: real time      1.1814
    SETDIJ:  cpu time      0.1427: real time      0.1432
     EDDAV:  cpu time      5.9073: real time      5.9441
       DOS:  cpu time      0.0004: real time      0.0004
    CHARGE:  cpu time      0.6619: real time      0.6656
    MIXING:  cpu time      0.0267: real time      0.0268
    --------------------------------------------
      LOOP:  cpu time      7.9041: real time      7.9615

 eigenvalue-minimisations  :  1300
 total energy-change (2. order) : 0.8691884E-03  (-0.7538569E-03)
 number of electron      90.0000003 magnetization       0.0000000
 augmentation part        4.0699740 magnetization      -0.0000374

 Broyden mixing:
  rms(total) = 0.13920E-01    rms(broyden)= 0.13918E-01
  rms(prec ) = 0.15948E-01
  weight for this iteration     100.00

 eigenvalues of (default mixing * dielectric matrix)
  average eigenvalue GAMMA=   1.4742
  2.5730  2.5730  1.5044  1.0011  1.0011  0.9439  0.7227

 Free energy of the ion-electron system (eV)
  ---------------------------------------------------
  alpha Z        PSCENC =         3.56996085
  Ewald energy   TEWEN  =     19029.41973238
  -Hartree energ DENC   =    -22232.06784369
  -exchange      EXHF   =         0.00000000
  -V(xc)+E(xc)   XCENC  =       332.26553430
  PAW double counting   =      7864.86615117    -7882.54266119
  entropy T*S    EENTRO =        -0.00000000
  eigenvalues    EBANDS =     -1220.52655034
  atomic energy  EATOM  =      3914.43183447
  Solvation  Ediel_sol  =         0.00000000
  ---------------------------------------------------
  free energy    TOTEN  =      -190.58384206 eV

  energy without entropy =     -190.58384206  energy(sigma->0) =     -190.58384206


--------------------------------------------------------------------------------------------------------




--------------------------------------- Iteration      1(  13)  ---------------------------------------


    POTLOK:  cpu time      1.1527: real time      1.1648
    SETDIJ:  cpu time      0.1419: real time      0.1425
     EDDAV:  cpu time      5.7567: real time      5.7895
       DOS:  cpu time      0.0010: real time      0.0010
    CHARGE:  cpu time      0.6618: real time      0.6655
    MIXING:  cpu time      0.0261: real time      0.0262
    --------------------------------------------
      LOOP:  cpu time      7.7402: real time      7.7895

 eigenvalue-minimisations  :  1248
 total energy-change (2. order) :-0.2213008E-02  (-0.3210046E-03)
 number of electron      90.0000003 magnetization       0.0000000
 augmentation part        4.0679905 magnetization       0.0000202

 Broyden mixing:
  rms(total) = 0.87462E-02    rms(broyden)= 0.87458E-02
  rms(prec ) = 0.10327E-01
  weight for this iteration     100.00

 eigenvalues of (default mixing * dielectric matrix)
  average eigenvalue GAMMA=   1.5592
  3.6145  2.4598  1.5388  1.1864  1.1864  0.9220  0.9220  0.6435

 Free energy of the ion-electron system (eV)
  ---------------------------------------------------
  alpha Z        PSCENC =         3.56996085
  Ewald energy   TEWEN  =     19029.41973238
  -Hartree energ DENC   =    -22238.69376192
  -exchange      EXHF   =         0.00000000
  -V(xc)+E(xc)   XCENC  =       332.36863297
  PAW double counting   =      7861.46497347    -7879.13854776
  entropy T*S    EENTRO =        -0.00000000
  eigenvalues    EBANDS =     -1214.00887951
  atomic energy  EATOM  =      3914.43183447
  Solvation  Ediel_sol  =         0.00000000
  ---------------------------------------------------
  free energy    TOTEN  =      -190.58605507 eV

  energy without entropy =     -190.58605507  energy(sigma->0) =     -190.58605507


--------------------------------------------------------------------------------------------------------




--------------------------------------- Iteration      1(  14)  ---------------------------------------


    POTLOK:  cpu time      1.1602: real time      1.1750
    SETDIJ:  cpu time      0.1425: real time      0.1431
     EDDAV:  cpu time      5.5168: real time      5.5488
       DOS:  cpu time      0.0009: real time      0.0009
    CHARGE:  cpu time      0.6681: real time      0.6719
    MIXING:  cpu time      0.0276: real time      0.0277
    --------------------------------------------
      LOOP:  cpu time      7.5161: real time      7.5674

 eigenvalue-minimisations  :  1196
 total energy-change (2. order) :-0.4939314E-02  (-0.1986823E-03)
 number of electron      90.0000003 magnetization       0.0000000
 augmentation part        4.0659825 magnetization      -0.0000034

 Broyden mixing:
  rms(total) = 0.70983E-02    rms(broyden)= 0.70979E-02
  rms(prec ) = 0.80378E-02
  weight for this iteration     100.00

 eigenvalues of (default mixing * dielectric matrix)
  average eigenvalue GAMMA=   1.6013
  4.0890  2.4383  1.7492  1.7492  0.9446  0.9446  0.9317  0.9317  0.6336

 Free energy of the ion-electron system (eV)
  ---------------------------------------------------
  alpha Z        PSCENC =         3.56996085
  Ewald energy   TEWEN  =     19029.41973238
  -Hartree energ DENC   =    -22243.79006691
  -exchange      EXHF   =         0.00000000
  -V(xc)+E(xc)   XCENC  =       332.43424962
  PAW double counting   =      7855.48006453    -7873.15195581
  entropy T*S    EENTRO =        -0.00000000
  eigenvalues    EBANDS =     -1208.98481350
  atomic energy  EATOM  =      3914.43183447
  Solvation  Ediel_sol  =         0.00000000
  ---------------------------------------------------
  free energy    TOTEN  =      -190.59099438 eV

  energy without entropy =     -190.59099438  energy(sigma->0) =     -190.59099438


--------------------------------------------------------------------------------------------------------




--------------------------------------- Iteration      1(  15)  ---------------------------------------


    POTLOK:  cpu time      1.1551: real time      1.1722
    SETDIJ:  cpu time      0.1416: real time      0.1422
     EDDAV:  cpu time     12.3791: real time     12.4496
       DOS:  cpu time      0.0006: real time      0.0006
    CHARGE:  cpu time      0.6644: real time      0.6680
    MIXING:  cpu time      0.0297: real time      0.0298
    --------------------------------------------
      LOOP:  cpu time     14.3705: real time     14.4625

 eigenvalue-minimisations  :  1391
 total energy-change (2. order) :-0.9187740E-02  (-0.1083581E-03)
 number of electron      90.0000003 magnetization       0.0000000
 augmentation part        4.0658686 magnetization      -0.0000343

 Broyden mixing:
  rms(total) = 0.37579E-02    rms(broyden)= 0.37575E-02
  rms(prec ) = 0.44236E-02
  weight for this iteration     100.00

 eigenvalues of (default mixing * dielectric matrix)
  average eigenvalue GAMMA=   1.6891
  5.0486  2.4288  2.4288  1.6660  1.0263  1.0263  0.9383  0.9383  0.7637  0.6262

 Free energy of the ion-electron system (eV)
  ---------------------------------------------------
  alpha Z        PSCENC =         3.56996085
  Ewald energy   TEWEN  =     19029.41973238
  -Hartree energ DENC   =    -22247.23679652
  -exchange      EXHF   =         0.00000000
  -V(xc)+E(xc)   XCENC  =       332.45635765
  PAW double counting   =      7852.57351390    -7870.24333155
  entropy T*S    EENTRO =        -0.00000000
  eigenvalues    EBANDS =     -1205.57145328
  atomic energy  EATOM  =      3914.43183447
  Solvation  Ediel_sol  =         0.00000000
  ---------------------------------------------------
  free energy    TOTEN  =      -190.60018212 eV

  energy without entropy =     -190.60018212  energy(sigma->0) =     -190.60018212


--------------------------------------------------------------------------------------------------------




--------------------------------------- Iteration      1(  16)  ---------------------------------------


    POTLOK:  cpu time      1.1709: real time      1.1812
    SETDIJ:  cpu time      0.1416: real time      0.1422
     EDDAV:  cpu time      9.5799: real time      9.6308
       DOS:  cpu time      0.4634: real time      0.4657
    CHARGE:  cpu time      2.0522: real time      2.0636
    MIXING:  cpu time      0.0321: real time      0.0322
    --------------------------------------------
      LOOP:  cpu time     13.4401: real time     13.5158

 eigenvalue-minimisations  :  1365
 total energy-change (2. order) :-0.5557353E-02  (-0.6587145E-04)
 number of electron      90.0000003 magnetization       0.0000000
 augmentation part        4.0661535 magnetization       0.0000141

 Broyden mixing:
  rms(total) = 0.30385E-02    rms(broyden)= 0.30383E-02
  rms(prec ) = 0.33892E-02
  weight for this iteration     100.00

 eigenvalues of (default mixing * dielectric matrix)
  average eigenvalue GAMMA=   1.7493
  6.0090  2.6734  2.2941  1.5095  1.5095  0.9691  0.9691  0.9824  0.9824  0.7223
  0.6214

 Free energy of the ion-electron system (eV)
  ---------------------------------------------------
  alpha Z        PSCENC =         3.56996085
  Ewald energy   TEWEN  =     19029.41973238
  -Hartree energ DENC   =    -22249.34407078
  -exchange      EXHF   =         0.00000000
  -V(xc)+E(xc)   XCENC  =       332.46654797
  PAW double counting   =      7849.40650611    -7867.07567678
  entropy T*S    EENTRO =        -0.00000000
  eigenvalues    EBANDS =     -1203.48057369
  atomic energy  EATOM  =      3914.43183447
  Solvation  Ediel_sol  =         0.00000000
  ---------------------------------------------------
  free energy    TOTEN  =      -190.60573948 eV

  energy without entropy =     -190.60573948  energy(sigma->0) =     -190.60573948


--------------------------------------------------------------------------------------------------------




--------------------------------------- Iteration      1(  17)  ---------------------------------------


    POTLOK:  cpu time      1.1615: real time      1.1766
    SETDIJ:  cpu time      0.1404: real time      0.1410
     EDDAV:  cpu time      5.9631: real time      5.9977
       DOS:  cpu time      0.0015: real time      0.0015
    CHARGE:  cpu time      0.6628: real time      0.6664
    MIXING:  cpu time      0.0294: real time      0.0296
    --------------------------------------------
      LOOP:  cpu time      7.9588: real time      8.0128

 eigenvalue-minimisations  :  1339
 total energy-change (2. order) :-0.4930318E-02  (-0.3136130E-04)
 number of electron      90.0000003 magnetization       0.0000000
 augmentation part        4.0658471 magnetization      -0.0000002

 Broyden mixing:
  rms(total) = 0.20219E-02    rms(broyden)= 0.20219E-02
  rms(prec ) = 0.22365E-02
  weight for this iteration     100.00

 eigenvalues of (default mixing * dielectric matrix)
  average eigenvalue GAMMA=   1.8058
  6.7331  3.0289  2.3222  1.8367  1.6143  0.9987  0.9987  0.9610  0.9610  0.9055
  0.6908  0.6191

 Free energy of the ion-electron system (eV)
  ---------------------------------------------------
  alpha Z        PSCENC =         3.56996085
  Ewald energy   TEWEN  =     19029.41973238
  -Hartree energ DENC   =    -22250.56803348
  -exchange      EXHF   =         0.00000000
  -V(xc)+E(xc)   XCENC  =       332.47027306
  PAW double counting   =      7848.19182718    -7865.86086899
  entropy T*S    EENTRO =        -0.00000000
  eigenvalues    EBANDS =     -1202.26539525
  atomic energy  EATOM  =      3914.43183447
  Solvation  Ediel_sol  =         0.00000000
  ---------------------------------------------------
  free energy    TOTEN  =      -190.61066980 eV

  energy without entropy =     -190.61066980  energy(sigma->0) =     -190.61066980


--------------------------------------------------------------------------------------------------------




--------------------------------------- Iteration      1(  18)  ---------------------------------------


    POTLOK:  cpu time      1.1623: real time      1.1709
    SETDIJ:  cpu time      0.1428: real time      0.1433
     EDDAV:  cpu time      5.4076: real time      5.4394
       DOS:  cpu time      0.0010: real time      0.0010
    CHARGE:  cpu time      0.6569: real time      0.6606
    MIXING:  cpu time      0.0304: real time      0.0305
    --------------------------------------------
      LOOP:  cpu time      7.4010: real time      7.4458

 eigenvalue-minimisations  :  1183
 total energy-change (2. order) :-0.3926856E-02  (-0.2459037E-04)
 number of electron      90.0000003 magnetization       0.0000000
 augmentation part        4.0657270 magnetization      -0.0000063

 Broyden mixing:
  rms(total) = 0.10259E-02    rms(broyden)= 0.10258E-02
  rms(prec ) = 0.11881E-02
  weight for this iteration     100.00

 eigenvalues of (default mixing * dielectric matrix)
  average eigenvalue GAMMA=   1.8443
  7.1681  3.6121  2.4206  2.0185  1.3412  1.3412  1.0204  1.0204  0.9928  0.9928
  0.7641  0.6644  0.6193

 Free energy of the ion-electron system (eV)
  ---------------------------------------------------
  alpha Z        PSCENC =         3.56996085
  Ewald energy   TEWEN  =     19029.41973238
  -Hartree energ DENC   =    -22250.96362228
  -exchange      EXHF   =         0.00000000
  -V(xc)+E(xc)   XCENC  =       332.46603420
  PAW double counting   =      7850.19054187    -7867.85859236
  entropy T*S    EENTRO =        -0.00000000
  eigenvalues    EBANDS =     -1201.87048577
  atomic energy  EATOM  =      3914.43183447
  Solvation  Ediel_sol  =         0.00000000
  ---------------------------------------------------
  free energy    TOTEN  =      -190.61459665 eV

  energy without entropy =     -190.61459665  energy(sigma->0) =     -190.61459665


--------------------------------------------------------------------------------------------------------




--------------------------------------- Iteration      1(  19)  ---------------------------------------


    POTLOK:  cpu time      1.1406: real time      1.1589
    SETDIJ:  cpu time      0.1562: real time      0.1568
     EDDAV:  cpu time      5.8766: real time      5.9110
       DOS:  cpu time      0.0010: real time      0.0010
    CHARGE:  cpu time      0.6659: real time      0.6697
    MIXING:  cpu time      0.0301: real time      0.0302
    --------------------------------------------
      LOOP:  cpu time      7.8703: real time      7.9275

 eigenvalue-minimisations  :  1287
 total energy-change (2. order) :-0.2171713E-02  (-0.1421032E-04)
 number of electron      90.0000003 magnetization       0.0000000
 augmentation part        4.0656229 magnetization       0.0000007

 Broyden mixing:
  rms(total) = 0.72149E-03    rms(broyden)= 0.72145E-03
  rms(prec ) = 0.81828E-03
  weight for this iteration     100.00

 eigenvalues of (default mixing * dielectric matrix)
  average eigenvalue GAMMA=   1.9042
  7.8363  4.1065  2.3848  2.3848  1.6006  1.0141  1.0141  1.2305  1.2305  0.9328
  0.9328  0.7303  0.6196  0.6408

 Free energy of the ion-electron system (eV)
  ---------------------------------------------------
  alpha Z        PSCENC =         3.56996085
  Ewald energy   TEWEN  =     19029.41973238
  -Hartree energ DENC   =    -22251.11193118
  -exchange      EXHF   =         0.00000000
  -V(xc)+E(xc)   XCENC  =       332.46305964
  PAW double counting   =      7851.15564599    -7868.82340095
  entropy T*S    EENTRO =        -0.00000000
  eigenvalues    EBANDS =     -1201.72166955
  atomic energy  EATOM  =      3914.43183447
  Solvation  Ediel_sol  =         0.00000000
  ---------------------------------------------------
  free energy    TOTEN  =      -190.61676836 eV

  energy without entropy =     -190.61676836  energy(sigma->0) =     -190.61676836


--------------------------------------------------------------------------------------------------------




--------------------------------------- Iteration      1(  20)  ---------------------------------------


    POTLOK:  cpu time      1.1551: real time      1.1728
    SETDIJ:  cpu time      0.1425: real time      0.1432
     EDDAV:  cpu time      5.7196: real time      5.7531
       DOS:  cpu time      0.0009: real time      0.0009
    CHARGE:  cpu time      0.6631: real time      0.6668
    MIXING:  cpu time      0.0299: real time      0.0300
    --------------------------------------------
      LOOP:  cpu time      7.7110: real time      7.7669

 eigenvalue-minimisations  :  1248
 total energy-change (2. order) :-0.1154350E-02  (-0.5794842E-05)
 number of electron      90.0000003 magnetization       0.0000000
 augmentation part        4.0655432 magnetization       0.0000023

 Broyden mixing:
  rms(total) = 0.57219E-03    rms(broyden)= 0.57217E-03
  rms(prec ) = 0.62493E-03
  weight for this iteration     100.00

 eigenvalues of (default mixing * dielectric matrix)
  average eigenvalue GAMMA=   1.9115
  8.2005  4.3520  2.5114  2.5114  1.7384  1.3635  1.0413  1.0413  0.9776  0.9776
  1.0422  0.9415  0.7211  0.6191  0.6338

 Free energy of the ion-electron system (eV)
  ---------------------------------------------------
  alpha Z        PSCENC =         3.56996085
  Ewald energy   TEWEN  =     19029.41973238
  -Hartree energ DENC   =    -22251.21838439
  -exchange      EXHF   =         0.00000000
  -V(xc)+E(xc)   XCENC  =       332.46194034
  PAW double counting   =      7850.78424103    -7868.45209581
  entropy T*S    EENTRO =        -0.00000000
  eigenvalues    EBANDS =     -1201.61515158
  atomic energy  EATOM  =      3914.43183447
  Solvation  Ediel_sol  =         0.00000000
  ---------------------------------------------------
  free energy    TOTEN  =      -190.61792271 eV

  energy without entropy =     -190.61792271  energy(sigma->0) =     -190.61792271


--------------------------------------------------------------------------------------------------------




--------------------------------------- Iteration      1(  21)  ---------------------------------------


    POTLOK:  cpu time      1.1623: real time      1.1765
    SETDIJ:  cpu time      0.1415: real time      0.1420
     EDDAV:  cpu time      8.9532: real time      8.9989
       DOS:  cpu time      0.0009: real time      0.0009
    CHARGE:  cpu time      0.6579: real time      0.6616
    MIXING:  cpu time      0.3155: real time      0.3166
    --------------------------------------------
      LOOP:  cpu time     11.2312: real time     11.2965

 eigenvalue-minimisations  :  1300
 total energy-change (2. order) :-0.5880659E-03  (-0.1868974E-05)
 number of electron      90.0000003 magnetization       0.0000000
 augmentation part        4.0655424 magnetization      -0.0000024

 Broyden mixing:
  rms(total) = 0.30527E-03    rms(broyden)= 0.30526E-03
  rms(prec ) = 0.34468E-03
  weight for this iteration     100.00

 eigenvalues of (default mixing * dielectric matrix)
  average eigenvalue GAMMA=   1.9768
  8.4635  5.0255  2.9071  2.4707  2.0926  1.6220  1.0258  1.0258  1.1799  1.1799
  0.9511  0.9511  0.7832  0.7001  0.6187  0.6325

 Free energy of the ion-electron system (eV)
  ---------------------------------------------------
  alpha Z        PSCENC =         3.56996085
  Ewald energy   TEWEN  =     19029.41973238
  -Hartree energ DENC   =    -22251.23516365
  -exchange      EXHF   =         0.00000000
  -V(xc)+E(xc)   XCENC  =       332.46091155
  PAW double counting   =      7850.34266282    -7868.01054616
  entropy T*S    EENTRO =        -0.00000000
  eigenvalues    EBANDS =     -1201.59790303
  atomic energy  EATOM  =      3914.43183447
  Solvation  Ediel_sol  =         0.00000000
  ---------------------------------------------------
  free energy    TOTEN  =      -190.61851078 eV

  energy without entropy =     -190.61851078  energy(sigma->0) =     -190.61851078


--------------------------------------------------------------------------------------------------------




[...]
     49      -1.3170      0.00000
     50      -0.6198      0.00000
     51      -0.5621      0.00000
     52      -0.5062      0.00000
     53      -0.2666      0.00000
     54      -0.2664      0.00000
     55       0.1087      0.00000
     56       0.1448      0.00000
     57       0.3196      0.00000
     58       0.3240      0.00000
     59       0.4069      0.00000
     60       0.5296      0.00000
     61       0.5831      0.00000
     62       0.6159      0.00000
     63       0.6170      0.00000
     64       0.6193      0.00000
     65       0.6256      0.00000


--------------------------------------------------------------------------------------------------------


 soft charge-density along one line, spin component           1
         0         1         2         3         4         5         6         7         8         9
 total charge-density along one line
 
 soft charge-density along one line, spin component           2
         0         1         2         3         4         5         6         7         8         9
 total charge-density along one line
 
 pseudopotential strength for first ion, spin component:           1
 10.306  13.708   0.000  -0.002  -0.000   0.000   0.004   0.000
 13.708  18.231   0.000  -0.003  -0.000   0.000   0.005   0.000
  0.000   0.000  -4.422  -0.000   0.010   8.655   0.000  -0.016
 -0.002  -0.003  -0.000  -4.430  -0.000   0.000   8.667   0.000
 -0.000  -0.000   0.010  -0.000  -4.423  -0.016   0.000   8.655
  0.000   0.000   8.655   0.000  -0.016 -19.078  -0.000   0.025
  0.004   0.005   0.000   8.667   0.000  -0.000 -19.097  -0.000
  0.000   0.000  -0.016   0.000   8.655   0.025  -0.000 -19.079
 pseudopotential strength for first ion, spin component:           2
 10.306  13.708   0.000  -0.002  -0.000   0.000   0.004   0.000
 13.708  18.231   0.000  -0.003  -0.000   0.000   0.005   0.000
  0.000   0.000  -4.422  -0.000   0.010   8.655   0.000  -0.016
 -0.002  -0.003  -0.000  -4.430  -0.000   0.000   8.667   0.000
 -0.000  -0.000   0.010  -0.000  -4.423  -0.016   0.000   8.655
  0.000   0.000   8.655   0.000  -0.016 -19.078  -0.000   0.025
  0.004   0.005   0.000   8.667   0.000  -0.000 -19.097  -0.000
  0.000   0.000  -0.016   0.000   8.655   0.025  -0.000 -19.079
 total augmentation occupancy for first ion, spin component:           1
  7.627  -3.313  -0.003   0.181   0.005  -0.000   0.027   0.001
 -3.313   1.498   0.002  -0.098  -0.003   0.000  -0.014  -0.000
 -0.003   0.002   1.487   0.003  -0.346   0.117   0.000  -0.049
  0.181  -0.098   0.003   1.744   0.001   0.000   0.160   0.000
  0.005  -0.003  -0.346   0.001   1.495  -0.049   0.000   0.118
 -0.000   0.000   0.117   0.000  -0.049   0.010   0.000  -0.006
  0.027  -0.014   0.000   0.160   0.000   0.000   0.016   0.000
  0.001  -0.000  -0.049   0.000   0.118  -0.006   0.000   0.010
 total augmentation occupancy for first ion, spin component:           2
 -0.000   0.000  -0.000   0.000   0.000   0.000   0.000   0.000
  0.000  -0.000   0.000  -0.000  -0.000  -0.000  -0.000  -0.000
 -0.000   0.000   0.000   0.000   0.000  -0.000   0.000  -0.000
  0.000  -0.000   0.000  -0.000   0.000  -0.000  -0.000  -0.000
  0.000  -0.000   0.000   0.000   0.000  -0.000   0.000  -0.000
  0.000  -0.000  -0.000  -0.000  -0.000  -0.000  -0.000  -0.000
  0.000  -0.000   0.000  -0.000   0.000  -0.000  -0.000  -0.000
  0.000  -0.000  -0.000  -0.000  -0.000  -0.000  -0.000   0.000


------------------------ aborting loop because EDIFF is reached ----------------------------------------





 total charge

# of ion       s       p       d       tot
------------------------------------------
    1        0.859   1.753   0.000   2.612
    2        0.859   1.753   0.000   2.612
    3        0.867   1.775   0.000   2.642
    4        0.867   1.775   0.000   2.641
    5        0.867   1.775   0.000   2.642
    6        0.867   1.775   0.000   2.641
    7        0.871   1.771   0.000   2.642
    8        0.870   1.771   0.000   2.640
    9        0.871   1.771   0.000   2.642
   10        0.870   1.771   0.000   2.640
   11        0.863   1.786   0.000   2.650
   12        0.863   1.786   0.000   2.650
   13        0.867   1.698   0.000   2.565
   14        0.867   1.698   0.000   2.565
   15        1.570   3.599   0.000   5.168
   16        1.586   3.545   0.000   5.130
   17        1.570   3.599   0.000   5.168
   18        1.586   3.545   0.000   5.130
   19        0.649   0.048   0.000   0.697
   20        0.649   0.048   0.000   0.697
   21        0.649   0.048   0.000   0.697
   22        0.649   0.048   0.000   0.697
   23        0.640   0.048   0.000   0.688
   24        0.643   0.048   0.000   0.691
   25        0.640   0.048   0.000   0.688
   26        0.643   0.048   0.000   0.691
   27        0.610   0.118   0.000   0.728
   28        0.610   0.118   0.000   0.728
--------------------------------------------------
tot         24.820  39.562   0.000  64.382



 magnetization (x)

# of ion       s       p       d       tot
------------------------------------------
    1       -0.000   0.000   0.000   0.000
    2       -0.000   0.000   0.000   0.000
    3        0.000  -0.000   0.000   0.000
    4       -0.000  -0.000   0.000  -0.000
    5       -0.000  -0.000   0.000  -0.000
    6       -0.000  -0.000   0.000  -0.000
    7       -0.000   0.000   0.000   0.000
    8       -0.000  -0.000   0.000  -0.000
    9       -0.000   0.000   0.000   0.000
   10       -0.000  -0.000   0.000  -0.000
   11       -0.000  -0.000   0.000  -0.000
   12       -0.000  -0.000   0.000  -0.000
   13        0.000   0.000   0.000   0.000
   14        0.000   0.000   0.000   0.000
   15        0.000   0.000   0.000   0.000
   16       -0.000  -0.000   0.000  -0.000
   17        0.000   0.000   0.000   0.000
   18       -0.000  -0.000   0.000  -0.000
   19        0.000   0.000   0.000   0.000
   20        0.000  -0.000   0.000  -0.000
   21        0.000   0.000   0.000   0.000
   22        0.000   0.000   0.000   0.000
   23       -0.000   0.000   0.000  -0.000
   24       -0.000  -0.000   0.000  -0.000
   25       -0.000   0.000   0.000  -0.000
   26       -0.000   0.000   0.000  -0.000
   27       -0.000   0.000   0.000  -0.000
   28       -0.000   0.000   0.000  -0.000
--------------------------------------------------
tot         -0.000  -0.000   0.000  -0.000
 
    CHARGE:  cpu time      0.6645: real time      0.6684
    FORLOC:  cpu time      0.0383: real time      0.0385
    FORNL :  cpu time      1.6289: real time      1.6386
    STRESS:  cpu time      5.9670: real time      6.0016
    FORCOR:  cpu time      0.8767: real time      0.8810
    FORHAR:  cpu time      0.1320: real time      0.1337
    MIXING:  cpu time      1.5011: real time      1.5064
    OFIELD:  cpu time      0.0000: real time      0.0000

  FORCE on cell =-STRESS in cart. coord.  units (eV):
  Direction    XX          YY          ZZ          XY          YZ          ZX
  --------------------------------------------------------------------------------------
  Alpha Z     3.56996     3.56996     3.56996
  Ewald   13558.21538 13464.11671 -7992.91305 -2414.68363    -4.29160    74.12513
  Hartree 15011.76596 14950.32148 -7710.87275 -1482.90837   -36.80521    89.09478
  E(xc)    -361.38073  -361.54654  -356.33835    -4.85511     0.27908    -0.20143
  Local  -29583.96486-29431.31355 14769.68850  3808.18258    53.24931  -174.11996
  n-local  -170.60643  -170.33391  -175.61779     9.51106    -2.27265     2.18530
  augment    22.68986    22.71636    21.55809     1.14355    -0.47963     0.46535
  Kinetic  1519.30063  1522.05506  1441.03501    83.54805    -9.68321     8.46238
  Fock        0.00000     0.00000     0.00000     0.00000     0.00000     0.00000
  -------------------------------------------------------------------------------------
  Total      -0.41023    -0.41443     0.10962    -0.06187    -0.00392     0.01154
  in kB      -0.06445    -0.06511     0.01722    -0.00972    -0.00062     0.00181
  external pressure =       -0.04 kB  Pullay stress =        0.00 kB


 VOLUME and BASIS-vectors are now :
 -----------------------------------------------------------------------------
  energy-cutoff  :      600.00
  volume of cell :    10197.88
      direct lattice vectors                 reciprocal lattice vectors
    12.780000687  0.000000000  0.000000000     0.078247257  0.000000000  0.000000000
     0.000000000 12.780000687  0.000000000     0.000000000  0.078247257  0.000000000
     0.000000000  0.000000000 62.437881470     0.000000000  0.000000000  0.016015918

  length of vectors
    12.780000687 12.780000687 62.437881470     0.078247257  0.078247257  0.016015918


 FORCES acting on ions
    electron-ion (+dipol)            ewald-force                    non-local-force                 convergence-correction
 -----------------------------------------------------------------------------------------------
   0.713E+00 -.430E+00 0.953E+01   -.726E+00 0.443E+00 -.944E+01   0.127E-01 -.132E-01 -.825E-01   -.127E-06 0.123E-06 -.124E-05
   -.574E+00 0.427E+00 -.953E+01   0.586E+00 -.440E+00 0.945E+01   -.117E-01 0.125E-01 0.808E-01   0.106E-06 -.925E-07 0.113E-05
   0.130E+03 -.128E+03 -.587E+01   -.131E+03 0.129E+03 0.550E+01   0.711E+00 -.701E+00 0.376E+00   -.825E-06 0.928E-06 0.511E-06
   -.129E+03 0.127E+03 0.181E+01   0.129E+03 -.128E+03 -.223E+01   -.680E+00 0.676E+00 0.429E+00   0.756E-06 -.823E-06 0.186E-06
   -.131E+03 0.127E+03 0.585E+01   0.132E+03 -.128E+03 -.548E+01   -.716E+00 0.694E+00 -.379E+00   0.799E-06 -.907E-06 -.528E-06
   0.130E+03 -.126E+03 -.179E+01   -.130E+03 0.127E+03 0.222E+01   0.684E+00 -.669E+00 -.428E+00   -.701E-06 0.778E-06 -.202E-06
   0.133E+03 -.131E+03 -.109E+03   -.134E+03 0.133E+03 0.110E+03   0.127E+01 -.126E+01 -.793E+00   0.459E-06 -.358E-06 -.905E-06
   -.132E+03 0.130E+03 -.995E+02   0.134E+03 -.132E+03 0.100E+03   -.115E+01 0.113E+01 -.598E+00   -.481E-06 0.449E-06 0.673E-06
   -.133E+03 0.131E+03 0.109E+03   0.135E+03 -.132E+03 -.110E+03   -.127E+01 0.125E+01 0.791E+00   -.419E-06 0.311E-06 0.855E-06
   0.133E+03 -.130E+03 0.995E+02   -.134E+03 0.131E+03 -.100E+03   0.115E+01 -.113E+01 0.598E+00   0.532E-06 -.426E-06 -.474E-06
   -.548E-01 -.210E+00 -.113E+03   0.764E-01 0.179E+00 0.111E+03   -.228E-01 0.326E-01 0.101E+01   0.682E-06 -.689E-06 -.404E-05
   0.117E+00 0.217E+00 0.113E+03   -.140E+00 -.185E+00 -.111E+03   0.221E-01 -.323E-01 -.101E+01   -.536E-06 0.565E-06 0.407E-05
   -.110E+02 0.107E+02 -.110E+03   0.986E+01 -.964E+01 0.104E+03   0.117E+01 -.111E+01 0.582E+01   0.298E-05 -.303E-05 -.893E-05
   0.111E+02 -.107E+02 0.110E+03   -.995E+01 0.959E+01 -.104E+03   -.117E+01 0.111E+01 -.581E+01   -.211E-05 0.216E-05 0.838E-05
   -.212E+03 0.208E+03 -.327E+03   0.241E+03 -.237E+03 0.306E+03   -.289E+02 0.288E+02 0.217E+02   0.587E-05 -.605E-05 -.138E-04
   0.214E+03 -.214E+03 -.422E+03   -.247E+03 0.247E+03 0.452E+03   0.327E+02 -.326E+02 -.296E+02   -.260E-05 0.255E-05 -.690E-05
   0.212E+03 -.207E+03 0.327E+03   -.241E+03 0.236E+03 -.306E+03   0.290E+02 -.287E+02 -.217E+02   -.572E-05 0.588E-05 0.139E-04
   -.215E+03 0.214E+03 0.422E+03   0.248E+03 -.246E+03 -.451E+03   -.329E+02 0.325E+02 0.296E+02   0.311E-05 -.303E-05 0.645E-05
   0.605E+02 -.598E+02 0.116E+02   -.643E+02 0.634E+02 -.142E+02   0.370E+01 -.364E+01 0.258E+01   -.195E-06 0.240E-06 0.195E-06
   -.599E+02 0.595E+02 0.152E+02   0.635E+02 -.631E+02 -.180E+02   -.361E+01 0.360E+01 0.277E+01   0.275E-06 -.308E-06 0.970E-07
   -.611E+02 0.592E+02 -.116E+02   0.648E+02 -.629E+02 0.142E+02   -.373E+01 0.361E+01 -.259E+01   0.192E-06 -.232E-06 -.206E-06
   0.605E+02 -.589E+02 -.152E+02   -.641E+02 0.625E+02 0.180E+02   0.364E+01 -.356E+01 -.277E+01   -.259E-06 0.283E-06 -.112E-06
   0.596E+02 -.591E+02 -.457E+02   -.632E+02 0.626E+02 0.489E+02   0.352E+01 -.351E+01 -.318E+01   -.278E-07 0.593E-07 -.900E-06
   -.607E+02 0.597E+02 -.404E+02   0.644E+02 -.633E+02 0.433E+02   -.367E+01 0.360E+01 -.289E+01   -.920E-07 0.742E-07 -.505E-06
   -.600E+02 0.587E+02 0.457E+02   0.636E+02 -.622E+02 -.489E+02   -.355E+01 0.348E+01 0.318E+01   0.222E-07 -.603E-07 0.850E-06
   0.611E+02 -.593E+02 0.404E+02   -.648E+02 0.629E+02 -.433E+02   0.369E+01 -.358E+01 0.289E+01   0.101E-06 -.693E-07 0.542E-06
   -.122E+02 0.109E+02 -.144E+03   0.115E+02 -.101E+02 0.152E+03   0.696E+00 -.767E+00 -.821E+01   0.426E-06 -.464E-06 -.254E-05
   0.121E+02 -.109E+02 0.144E+03   -.114E+02 0.101E+02 -.152E+03   -.707E+00 0.764E+00 0.821E+01   -.364E-06 0.405E-06 0.242E-05
 -----------------------------------------------------------------------------------------------
   0.341E-01 0.344E-01 0.189E-03   0.355E-14 -.128E-12 -.568E-13   -.372E-01 -.303E-01 -.896E-02   0.185E-05 -.174E-05 -.109E-05
 
 
 POSITION                                       TOTAL-FORCE (eV/Angst)
 -----------------------------------------------------------------------------------
      2.23116      2.21392     26.69178         0.000310     -0.000151      0.006635
      2.20758      2.22596     25.20770         0.000159      0.000026     -0.007640
      1.38721      3.05344     27.44891        -0.005804      0.006146      0.005188
      3.09842      1.36283     27.40667         0.004348     -0.005087      0.004977
      3.05763      1.39239     24.45083         0.006764     -0.006115     -0.006998
      1.33468      3.07106     24.49256        -0.006236      0.005191     -0.003253
      1.40775      3.04415     28.83690        -0.005704      0.006355      0.004240
      3.12547      1.34782     28.79626         0.006808     -0.007542      0.006900
      3.03728      1.40127     23.06287         0.006904     -0.006300     -0.005581
      1.30885      3.08672     23.10292        -0.007177      0.005432     -0.006479
      2.27805      2.19075     29.52904        -0.001064      0.000910      0.001493
      2.16210      2.24943     22.37044        -0.000459     -0.000719      0.000405
      2.26279      2.21934     31.01092         0.004238     -0.004274      0.031960
      2.17885      2.22143     20.88856        -0.005399      0.005849     -0.029156
      3.15400      1.34262     31.56996         0.001820     -0.001224      0.003402
      1.54390      2.93700     31.69277        -0.008724      0.010990      0.009498
      1.28533      3.09534     20.32884        -0.001008     -0.000767     -0.006753
      2.90093      1.50651     20.20719         0.009463     -0.007517     -0.011993
      0.69708      3.73183     26.95174        -0.009114      0.009998      0.000437
      3.77141      0.69290     26.87575         0.009519     -0.010697      0.000119
      3.75315      0.71969     24.94819         0.010121     -0.009473      0.000234
      0.65577      3.73519     25.02328        -0.009994      0.009251      0.000683
      0.75093      3.69739     29.41044        -0.008114      0.008726      0.005490
      3.80640      0.68003     29.32086         0.008972     -0.009895      0.004101
      3.69844      0.75221     22.48959         0.009121     -0.008181     -0.005162
      0.62406      3.75031     22.57803        -0.009514      0.009016     -0.003111
      3.05535      1.44956     32.53788         0.002845     -0.003088      0.011366
      1.38539      2.98890     19.36100        -0.003083      0.003141     -0.011004
 -----------------------------------------------------------------------------------
    total drift:                               -0.003024      0.004112     -0.008773


--------------------------------------------------------------------------------------------------------



  FREE ENERGIE OF THE ION-ELECTRON SYSTEM (eV)
  ---------------------------------------------------
  free  energy   TOTEN  =      -190.61917075 eV

  energy  without entropy=     -190.61917075  energy(sigma->0) =     -190.61917075
 


--------------------------------------------------------------------------------------------------------


    POTLOK:  cpu time      4.2334: real time      4.2570


--------------------------------------------------------------------------------------------------------


     LOOP+:  cpu time    317.0043: real time    319.1585
    4ORBIT:  cpu time      0.0000: real time      0.0000



 total charge

# of ion       s       p       d       tot
------------------------------------------
    1        0.859   1.753   0.000   2.612
    2        0.859   1.753   0.000   2.612
    3        0.867   1.775   0.000   2.642
    4        0.867   1.775   0.000   2.641
    5        0.867   1.775   0.000   2.642
    6        0.867   1.775   0.000   2.641
    7        0.871   1.771   0.000   2.642
    8        0.870   1.771   0.000   2.640
    9        0.871   1.771   0.000   2.642
   10        0.870   1.771   0.000   2.640
   11        0.863   1.786   0.000   2.650
   12        0.863   1.786   0.000   2.650
   13        0.867   1.698   0.000   2.565
   14        0.867   1.698   0.000   2.565
   15        1.570   3.599   0.000   5.168
   16        1.586   3.545   0.000   5.130
   17        1.570   3.599   0.000   5.168
   18        1.586   3.545   0.000   5.130
   19        0.649   0.048   0.000   0.697
   20        0.649   0.048   0.000   0.697
   21        0.649   0.048   0.000   0.697
   22        0.649   0.048   0.000   0.697
   23        0.640   0.048   0.000   0.688
   24        0.643   0.048   0.000   0.691
   25        0.640   0.048   0.000   0.688
   26        0.643   0.048   0.000   0.691
   27        0.610   0.118   0.000   0.728
   28        0.610   0.118   0.000   0.728
--------------------------------------------------
tot         24.820  39.562   0.000  64.382



 magnetization (x)

# of ion       s       p       d       tot
------------------------------------------
    1       -0.000   0.000   0.000   0.000
    2       -0.000   0.000   0.000   0.000
    3        0.000  -0.000   0.000   0.000
    4       -0.000  -0.000   0.000  -0.000
    5       -0.000  -0.000   0.000  -0.000
    6       -0.000  -0.000   0.000  -0.000
    7       -0.000   0.000   0.000   0.000
    8       -0.000  -0.000   0.000  -0.000
    9       -0.000   0.000   0.000   0.000
   10       -0.000  -0.000   0.000  -0.000
   11       -0.000  -0.000   0.000  -0.000
   12       -0.000  -0.000   0.000  -0.000
   13        0.000   0.000   0.000   0.000
   14        0.000   0.000   0.000   0.000
   15        0.000   0.000   0.000   0.000
   16       -0.000  -0.000   0.000  -0.000
   17        0.000   0.000   0.000   0.000
   18       -0.000  -0.000   0.000  -0.000
   19        0.000   0.000   0.000   0.000
   20        0.000  -0.000   0.000  -0.000
   21        0.000   0.000   0.000   0.000
   22        0.000   0.000   0.000   0.000
   23       -0.000   0.000   0.000  -0.000
   24       -0.000  -0.000   0.000  -0.000
   25       -0.000   0.000   0.000  -0.000
   26       -0.000   0.000   0.000  -0.000
   27       -0.000   0.000   0.000  -0.000
   28       -0.000   0.000   0.000  -0.000
--------------------------------------------------
tot         -0.000  -0.000   0.000  -0.000
 

 total amount of memory used by VASP MPI-rank0   220143. kBytes
=======================================================================

   base      :      30000. kBytes
   nonlr-proj:       2630. kBytes
   fftplans  :      42563. kBytes
   grid      :     117645. kBytes
   one-center:         24. kBytes
   wavefun   :      27281. kBytes
 
  
  
 General timing and accounting informations for this job:
 ========================================================
  
                  Total CPU time used (sec):      335.801
                            User time (sec):      332.836
                          System time (sec):        2.965
                         Elapsed time (sec):      340.564
  
                   Maximum memory used (kb):      653892.
                   Average memory used (kb):          N/A
  
                          Minor page faults:       336613
                          Major page faults:          723
                 Voluntary context switches:         7551
