 vasp.6.4.3 19Mar24 (build Jul 11 2024 14:45:55) complex                        
  
 executed on             LinuxIFC date 2024.10.15  00:02:42
 running  104 mpi-ranks, with    1 threads/rank, on    1 nodes
 distrk:  each k-point on   26 cores,    4 groups
 distr:  one band on NCORE=   1 cores,   26 groups


--------------------------------------------------------------------------------------------------------


 INCAR:
   SYSTEM = CoO Bulk Cubic Fm3m
   GGA = PE
   ISTART = 0
   ICHARG = 2
   PREC = Accurate
   LASPH = .TRUE.
   ISMEAR = 0
   SIGMA = 0.03
   ENCUT = 600
   EDIFF = 1E-7
   NELM = 300
   LREAL = Auto
   LMAXMIX = 4
   ISPIN = 2
   MAGMOM = 27*5 27*-5 54*0.0
   ALGO = Normal
   NELMIN = 5
   ISIF = 2
   NSW = 0
   IBRION = -1
   EDIFFG = -0.001
   LDAU = .TRUE.
   LDAUTYPE = 2
   LDAUL = 2 -1
   LDAUU = 3.0 0
   LWAVE = .FALSE.
   LCHARG = .FALSE.
   LDAUJ = 0 0
   LDAUPRINT = 0
   LORBIT = 11
   NCORE = 8
   KPAR = 4

 POTCAR:    PAW_PBE Co 02Aug2007                  
 POTCAR:    PAW_PBE O 08Apr2002                   
 POTCAR:    PAW_PBE Co 02Aug2007                  
   VRHFIN =Co: d8 s1                                                                                
   LEXCH  = PE                                                                                      
   EATOM  =   813.3670 eV,   59.7808 Ry                                                             
                                                                                                    
   TITEL  = PAW_PBE Co 02Aug2007                                                                    
   LULTRA =        F    use ultrasoft PP ?                                                          
   IUNSCR =        1    unscreen: 0-lin 1-nonlin 2-no                                               
   RPACOR =    2.000    partial core radius                                                         
   POMASS =   58.933; ZVAL   =    9.000    mass and valenz                                          
   RCORE  =    2.300    outmost cutoff radius                                                       
   RWIGS  =    2.460; RWIGS  =    1.302    wigner-seitz radius (au A)                               
   ENMAX  =  267.968; ENMIN  =  200.976 eV                                                          
   RCLOC  =    1.203    cutoff for local pot                                                        
   LCOR   =        T    correct aug charges                                                         
   LPAW   =        T    paw PP                                                                      
   EAUG   =  477.818                                                                                
   DEXC   =    0.000                                                                                
   RMAX   =    2.360    core radius for proj-oper                                                   
   RAUG   =    1.300    factor for augmentation sphere                                              
   RDEP   =    2.393    radius for radial grids                                                     
   RDEPT  =    1.864    core radius for aug-charge                                                  
                                                                                                    
   Atomic configuration                                                                             
    9 entries                                                                                       
     n  l   j            E        occ.                                                              
     1  0  0.50     -7587.6674   2.0000                                                             
     2  0  0.50      -893.6084   2.0000                                                             
     2  1  1.50      -764.5805   6.0000                                                             
     3  0  0.50       -97.5973   2.0000                                                             
     3  1  1.50       -60.9648   6.0000                                                             
     3  2  2.50        -4.2382   8.0000                                                             
     4  0  0.50        -4.3746   1.0000                                                             
     4  1  1.50        -4.0817   0.0000                                                             
     4  3  2.50        -1.3606   0.0000                                                             
   Description                                                                                      
     l       E           TYP  RCUT    TYP  RCUT                                                     
     2     -4.2382362     23  2.300                                                                 
     2     -5.5988188     23  2.300                                                                 
     0     -4.3745797     23  2.300                                                                 
     0      5.7660125     23  2.300                                                                 
     1     -2.7211652     23  2.300                                                                 
     1     16.9860234     23  2.300                                                                 
  local pseudopotential read in
  partial core-charges read in
  partial kinetic energy density read in
  atomic valenz-charges read in
  non local Contribution for L=           2  read in
    real space projection operators read in
  non local Contribution for L=           2  read in
    real space projection operators read in
  non local Contribution for L=           0  read in
    real space projection operators read in
  non local Contribution for L=           0  read in
    real space projection operators read in
  non local Contribution for L=           1  read in
    real space projection operators read in
  non local Contribution for L=           1  read in
    real space projection operators read in
    PAW grid and wavefunctions read in
 
   number of l-projection  operators is LMAX  =           6
   number of lm-projection operators is LMMAX =          18
 
 POTCAR:    PAW_PBE O 08Apr2002                   
   VRHFIN =O: s2p4                                                                                  
   LEXCH  = PE                                                                                      
   EATOM  =   432.3788 eV,   31.7789 Ry                                                             
                                                                                                    
   TITEL  = PAW_PBE O 08Apr2002                                                                     
   LULTRA =        F    use ultrasoft PP ?                                                          
   IUNSCR =        1    unscreen: 0-lin 1-nonlin 2-no                                               
   RPACOR =    1.200    partial core radius                                                         
   POMASS =   16.000; ZVAL   =    6.000    mass and valenz                                          
   RCORE  =    1.520    outmost cutoff radius                                                       
   RWIGS  =    1.550; RWIGS  =    0.820    wigner-seitz radius (au A)                               
   ENMAX  =  400.000; ENMIN  =  300.000 eV                                                          
   ICORE  =        2    local potential                                                             
   LCOR   =        T    correct aug charges                                                         
   LPAW   =        T    paw PP                                                                      
   EAUG   =  605.392                                                                                
   DEXC   =    0.000                                                                                
   RMAX   =    1.553    core radius for proj-oper                                                   
   RAUG   =    1.300    factor for augmentation sphere                                              
   RDEP   =    1.550    radius for radial grids                                                     
   RDEPT  =    1.329    core radius for aug-charge                                                  
                                                                                                    
   Atomic configuration                                                                             
    4 entries                                                                                       
     n  l   j            E        occ.                                                              
     1  0  0.50      -514.6923   2.0000                                                             
     2  0  0.50       -23.9615   2.0000                                                             
     2  1  0.50        -9.0305   4.0000                                                             
     3  2  1.50        -9.5241   0.0000                                                             
   Description                                                                                      
     l       E           TYP  RCUT    TYP  RCUT                                                     
     0    -23.9615318     23  1.200                                                                 
     0     -9.5240782     23  1.200                                                                 
     1     -9.0304911     23  1.520                                                                 
     1      8.1634956     23  1.520                                                                 
     2     -9.5240782      7  1.500                                                                 
  local pseudopotential read in
  partial core-charges read in
  partial kinetic energy density read in
  kinetic energy density of atom read in
  atomic valenz-charges read in
  non local Contribution for L=           0  read in
    real space projection operators read in
  non local Contribution for L=           0  read in
    real space projection operators read in
  non local Contribution for L=           1  read in
    real space projection operators read in
  non local Contribution for L=           1  read in
    real space projection operators read in
    PAW grid and wavefunctions read in
 
   number of l-projection  operators is LMAX  =           4
   number of lm-projection operators is LMMAX =           8
 
 Optimization of the real space projectors (new method)

 maximal supplied QI-value         = 16.25
 optimisation between [QCUT,QGAM] = [ 12.51, 25.03] = [ 43.85,175.40] Ry 
 Optimized for a Real-space Cutoff    1.35 Angstroem

   l    n(q)    QCUT    max X(q) W(low)/X(q) W(high)/X(q)  e(spline) 
   2      9    12.514    65.824    0.12E-03    0.14E-03    0.37E-06
   2      9    12.514    61.429    0.12E-03    0.14E-03    0.37E-06
   0     10    12.514    56.174    0.18E-03    0.10E-03    0.14E-06
   0     10    12.514    31.263    0.16E-03    0.91E-04    0.13E-06
   1     10    12.514    19.828    0.11E-03    0.57E-04    0.19E-06
   1     10    12.514    15.139    0.95E-04    0.45E-04    0.15E-06
 Optimization of the real space projectors (new method)

 maximal supplied QI-value         = 24.76
 optimisation between [QCUT,QGAM] = [ 12.38, 25.00] = [ 42.90,175.06] Ry 
 Optimized for a Real-space Cutoff    1.16 Angstroem

   l    n(q)    QCUT    max X(q) W(low)/X(q) W(high)/X(q)  e(spline) 
   0      9    12.378    20.381    0.16E-03    0.67E-05    0.31E-06
   0      9    12.378    15.268    0.17E-03    0.81E-05    0.33E-06
   1      8    12.378     5.964    0.20E-03    0.16E-03    0.30E-06
   1      8    12.378     5.382    0.18E-03    0.14E-03    0.26E-06
  PAW_PBE Co 02Aug2007                  :
 energy of atom  1       EATOM= -813.3670
 kinetic energy error for atom=    0.0018 (will be added to EATOM!!)
  PAW_PBE O 08Apr2002                   :
 energy of atom  2       EATOM= -432.3788
 kinetic energy error for atom=    0.0168 (will be added to EATOM!!)
 
 
 POSCAR: Generated by VASPKIT code
  positions in direct lattice
  velocities in cartesian coordinates


 exchange-correlation table for PE
   RHO(1)=    0.500       N(1)  =     2000
   RHO(2)=  100.500       N(2)  =     4000
 


--------------------------------------------------------------------------------------------------------


 ion  position               nearest neighbor table
   1  0.333  0.333  0.036-  83 2.13  73 2.13  55 2.13  76 2.13  82 2.13  64 2.13  38 2.98  22 2.98
                            19 2.98  37 2.98  50 3.01  47 3.01  29 3.01  13 3.01  10 3.01  49 3.01
   2  0.333  0.666  0.036-  84 2.13  74 2.13  56 2.13  77 2.13  83 2.13  65 2.13  39 2.98  23 2.98
                            20 2.98  38 2.98  51 3.01  48 3.01  30 3.01  14 3.01  11 3.01  50 3.01
   3  0.333  1.000  0.036-  82 2.13  75 2.13  57 2.13  78 2.13  84 2.13  66 2.13  37 2.98  24 2.98
                            21 2.98  39 2.98  49 3.01  46 3.01  28 3.01  15 3.01  12 3.01  51 3.01
   4  0.666  0.333  0.036-  86 2.13  76 2.13  58 2.13  79 2.13  85 2.13  67 2.13  41 2.98  25 2.98
                            22 2.98  40 2.98  53 3.01  50 3.01  32 3.01  16 3.01  13 3.01  52 3.01
   5  0.666  0.666  0.036-  87 2.13  77 2.13  59 2.13  80 2.13  86 2.13  68 2.13  42 2.98  26 2.98
                            23 2.98  41 2.98  54 3.01  51 3.01  33 3.01  17 3.01  14 3.01  53 3.01
   6  0.666  1.000  0.036-  85 2.13  78 2.13  60 2.13  81 2.13  87 2.13  69 2.13  40 2.98  27 2.98
                            24 2.98  42 2.98  52 3.01  49 3.01  31 3.01  18 3.01  15 3.01  54 3.01
   7  1.000  0.333  0.036-  89 2.13  61 2.13  73 2.13  79 2.13  88 2.13  70 2.13  44 2.98  19 2.98
                            25 2.98  43 2.98  47 3.01  35 3.01  53 3.01  10 3.01  16 3.01  46 3.01
   8  1.000  0.666  0.036-  90 2.13  62 2.13  74 2.13  80 2.13  89 2.13  71 2.13  45 2.98  20 2.98
                            26 2.98  44 2.98  48 3.01  36 3.01  54 3.01  11 3.01  17 3.01  47 3.01
   9  1.000  1.000  0.036-  88 2.13  63 2.13  75 2.13  81 2.13  90 2.13  72 2.13  43 2.98  21 2.98
                            27 2.98  45 2.98  46 3.01  34 3.01  52 3.01  12 3.01  18 3.01  48 3.01
  10  0.166  0.333  0.002-  92 2.13  73 2.13  55 2.13  61 2.13  91 2.13  35 3.01  29 3.01  47 3.01
                             7 3.01   1 3.01  34 3.01  28 3.01  46 3.01
  11  0.166  0.666  0.002-  93 2.13  74 2.13  56 2.13  62 2.13  92 2.13  36 3.01  30 3.01  48 3.01
                             8 3.01   2 3.01  35 3.01  29 3.01  47 3.01
  12  0.166  1.000  0.002-  91 2.13  75 2.13  57 2.13  63 2.13  93 2.13  34 3.01  28 3.01  46 3.01
                             9 3.01   3 3.01  36 3.01  30 3.01  48 3.01
  13  0.500  0.333  0.002-  95 2.13  76 2.13  58 2.13  55 2.13  94 2.13  29 3.01  32 3.01  50 3.01
                             1 3.01   4 3.01  28 3.01  31 3.01  49 3.01
  14  0.500  0.666  0.002-  96 2.13  77 2.13  59 2.13  56 2.13  95 2.13  30 3.01  33 3.01  51 3.01
                             2 3.01   5 3.01  29 3.01  32 3.01  50 3.01
  15  0.500  1.000  0.002-  94 2.13  78 2.13  60 2.13  57 2.13  96 2.13  28 3.01  31 3.01  49 3.01
                             3 3.01   6 3.01  30 3.01  33 3.01  51 3.01
  16  0.833  0.333  0.002-  98 2.13  61 2.13  79 2.13  58 2.13  97 2.13  32 3.01  53 3.01  35 3.01
                             4 3.01   7 3.01  31 3.01  52 3.01  34 3.01
  17  0.833  0.666  0.002-  99 2.13  62 2.13  80 2.13  59 2.13  98 2.13  33 3.01  54 3.01  36 3.01
                             5 3.01   8 3.01  32 3.01  53 3.01  35 3.01
  18  0.833  1.000  0.002-  97 2.13  63 2.13  81 2.13  60 2.13  99 2.13  31 3.01  52 3.01  34 3.01
                             6 3.01   9 3.01  33 3.01  54 3.01  36 3.01
  19  0.166  0.333  0.069-  73 2.09 101 2.13  64 2.13  70 2.13 100 2.13  47 2.98   7 2.98   1 2.98
                            46 2.98  44 3.01  38 3.01  43 3.01  37 3.01
  20  0.166  0.666  0.069-  74 2.09 102 2.13  65 2.13  71 2.13 101 2.13  48 2.98   8 2.98   2 2.98
                            47 2.98  45 3.01  39 3.01  44 3.01  38 3.01
  21  0.166  1.000  0.069-  75 2.09 100 2.13  66 2.13  72 2.13 102 2.13  46 2.98   9 2.98   3 2.98
                            48 2.98  43 3.01  37 3.01  45 3.01  39 3.01
  22  0.500  0.333  0.069-  76 2.09 104 2.13  67 2.13  64 2.13 103 2.13  50 2.98   1 2.98   4 2.98
                            49 2.98  38 3.01  41 3.01  37 3.01  40 3.01
  23  0.500  0.666  0.069-  77 2.09 105 2.13  68 2.13  65 2.13 104 2.13  51 2.98   2 2.98   5 2.98
                            50 2.98  39 3.01  42 3.01  38 3.01  41 3.01
  24  0.500  1.000  0.069-  78 2.09 103 2.13  69 2.13  66 2.13 105 2.13  49 2.98   3 2.98   6 2.98
                            51 2.98  37 3.01  40 3.01  39 3.01  42 3.01
  25  0.833  0.333  0.069-  79 2.09 107 2.13  70 2.13  67 2.13 106 2.13  53 2.98   4 2.98   7 2.98
                            52 2.98  41 3.01  44 3.01  40 3.01  43 3.01
  26  0.833  0.666  0.069-  80 2.09 108 2.13  71 2.13  68 2.13 107 2.13  54 2.98   5 2.98   8 2.98
                            53 2.98  42 3.01  45 3.01  41 3.01  44 3.01
  27  0.833  1.000  0.069-  81 2.09 106 2.13  72 2.13  69 2.13 108 2.13  52 2.98   6 2.98   9 2.98
                            54 2.98  40 3.01  43 3.01  42 3.01  45 3.01
  28  0.333  0.166  0.002-  57 2.13  82 2.13  91 2.13  94 2.13  55 2.13  15 3.01  12 3.01   3 3.01
                            49 3.01  46 3.01  13 3.01  10 3.01   1 3.01
  29  0.333  0.500  0.002-  55 2.13  83 2.13  92 2.13  95 2.13  56 2.13  13 3.01  10 3.01   1 3.01
                            50 3.01  47 3.01  14 3.01  11 3.01   2 3.01
  30  0.333  0.833  0.002-  56 2.13  84 2.13  93 2.13  96 2.13  57 2.13  14 3.01  11 3.01   2 3.01
                            51 3.01  48 3.01  15 3.01  12 3.01   3 3.01
  31  0.666  0.166  0.002-  60 2.13  94 2.13  85 2.13  97 2.13  58 2.13  18 3.01  15 3.01   6 3.01
                            52 3.01  49 3.01  16 3.01  13 3.01   4 3.01
  32  0.666  0.500  0.002-  58 2.13  95 2.13  86 2.13  98 2.13  59 2.13  16 3.01  13 3.01   4 3.01
                            53 3.01  50 3.01  17 3.01  14 3.01   5 3.01
  33  0.666  0.833  0.002-  59 2.13  96 2.13  87 2.13  99 2.13  60 2.13  17 3.01  14 3.01   5 3.01
                            54 3.01  51 3.01  18 3.01  15 3.01   6 3.01
  34  1.000  0.166  0.002-  63 2.13  88 2.13  91 2.13  97 2.13  61 2.13  12 3.01   9 3.01  18 3.01
                            46 3.01  52 3.01  10 3.01   7 3.01  16 3.01
  35  1.000  0.500  0.002-  61 2.13  89 2.13  92 2.13  98 2.13  62 2.13  10 3.01   7 3.01  16 3.01
                            47 3.01  53 3.01  11 3.01   8 3.01  17 3.01
  36  1.000  0.833  0.002-  62 2.13  90 2.13  93 2.13  99 2.13  63 2.13  11 3.01   8 3.01  17 3.01
                            48 3.01  54 3.01  12 3.01   9 3.01  18 3.01
  37  0.333  0.166  0.069-  82 2.09  66 2.13 100 2.13 103 2.13  64 2.13   3 2.98  49 2.98  46 2.98
                             1 2.98  24 3.01  21 3.01  22 3.01  19 3.01
  38  0.333  0.500  0.069-  83 2.09  64 2.13 101 2.13 104 2.13  65 2.13   1 2.98  50 2.98  47 2.98
                             2 2.98  22 3.01  19 3.01  23 3.01  20 3.01
  39  0.333  0.833  0.069-  84 2.09  65 2.13 102 2.13 105 2.13  66 2.13   2 2.98  51 2.98  48 2.98
                             3 2.98  23 3.01  20 3.01  24 3.01  21 3.01
  40  0.666  0.166  0.069-  85 2.09  69 2.13 103 2.13 106 2.13  67 2.13   6 2.98  52 2.98  49 2.98
                             4 2.98  27 3.01  24 3.01  25 3.01  22 3.01
  41  0.666  0.500  0.069-  86 2.09  67 2.13 104 2.13 107 2.13  68 2.13   4 2.98  53 2.98  50 2.98
                             5 2.98  25 3.01  22 3.01  26 3.01  23 3.01
  42  0.666  0.833  0.069-  87 2.09  68 2.13 105 2.13 108 2.13  69 2.13   5 2.98  54 2.98  51 2.98
                             6 2.98  26 3.01  23 3.01  27 3.01  24 3.01
  43  1.000  0.166  0.069-  88 2.09  72 2.13 100 2.13 106 2.13  70 2.13   9 2.98  46 2.98  52 2.98
                             7 2.98  21 3.01  27 3.01  19 3.01  25 3.01
  44  1.000  0.500  0.069-  89 2.09  70 2.13 101 2.13 107 2.13  71 2.13   7 2.98  47 2.98  53 2.98
                             8 2.98  19 3.01  25 3.01  20 3.01  26 3.01
  45  1.000  0.833  0.069-  90 2.09  71 2.13 102 2.13 108 2.13  72 2.13   8 2.98  48 2.98  54 2.98
                             9 2.98  20 3.01  26 3.01  21 3.01  27 3.01
  46  0.166  0.166  0.036-  75 2.13  82 2.13  91 2.13  88 2.13  73 2.13 100 2.13  21 2.98  43 2.98
                            37 2.98  19 2.98   9 3.01   3 3.01  12 3.01  34 3.01  28 3.01   7 3.01
  47  0.166  0.500  0.036-  73 2.13  83 2.13  92 2.13  89 2.13  74 2.13 101 2.13  19 2.98  44 2.98
                            38 2.98  20 2.98   7 3.01   1 3.01  10 3.01  35 3.01  29 3.01   8 3.01
  48  0.166  0.833  0.036-  74 2.13  84 2.13  93 2.13  90 2.13  75 2.13 102 2.13  20 2.98  45 2.98
                            39 2.98  21 2.98   8 3.01   2 3.01  11 3.01  36 3.01  30 3.01   9 3.01
  49  0.500  0.166  0.036-  78 2.13  94 2.13  85 2.13  82 2.13  76 2.13 103 2.13  24 2.98  37 2.98
                            40 2.98  22 2.98   3 3.01   6 3.01  15 3.01  28 3.01  31 3.01   1 3.01
  50  0.500  0.500  0.036-  76 2.13  95 2.13  86 2.13  83 2.13  77 2.13 104 2.13  22 2.98  38 2.98
                            41 2.98  23 2.98   1 3.01   4 3.01  13 3.01  29 3.01  32 3.01   2 3.01
  51  0.500  0.833  0.036-  77 2.13  96 2.13  87 2.13  84 2.13  78 2.13 105 2.13  23 2.98  39 2.98
                            42 2.98  24 2.98   2 3.01   5 3.01  14 3.01  30 3.01  33 3.01   3 3.01
  52  0.833  0.166  0.036-  81 2.13  88 2.13  97 2.13  85 2.13  79 2.13 106 2.13  27 2.98  40 2.98
                            43 2.98  25 2.98   6 3.01  18 3.01   9 3.01  31 3.01  34 3.01   4 3.01
  53  0.833  0.500  0.036-  79 2.13  89 2.13  98 2.13  86 2.13  80 2.13 107 2.13  25 2.98  41 2.98
                            44 2.98  26 2.98   4 3.01  16 3.01   7 3.01  32 3.01  35 3.01   5 3.01
  54  0.833  0.833  0.036-  80 2.13  90 2.13  99 2.13  87 2.13  81 2.13 108 2.13  26 2.98  42 2.98
                            45 2.98  27 2.98   5 3.01  17 3.01   8 3.01  33 3.01  36 3.01   6 3.01
  55  0.333  0.333  0.002-  29 2.13  10 2.13   1 2.13  13 2.13  28 2.13
  56  0.333  0.666  0.002-  30 2.13  11 2.13   2 2.13  14 2.13  29 2.13
  57  0.333  1.000  0.002-  28 2.13  12 2.13   3 2.13  15 2.13  30 2.13
  58  0.666  0.333  0.002-  32 2.13   4 2.13  13 2.13  16 2.13  31 2.13
  59  0.666  0.666  0.002-  33 2.13   5 2.13  14 2.13  17 2.13  32 2.13
  60  0.666  1.000  0.002-  31 2.13   6 2.13  15 2.13  18 2.13  33 2.13
  61  1.000  0.333  0.002-  35 2.13  16 2.13   7 2.13  10 2.13  34 2.13
  62  1.000  0.666  0.002-  36 2.13  17 2.13   8 2.13  11 2.13  35 2.13
  63  1.000  1.000  0.002-  34 2.13  18 2.13   9 2.13  12 2.13  36 2.13
  64  0.333  0.333  0.070-  38 2.13  19 2.13  22 2.13  37 2.13   1 2.13
  65  0.333  0.666  0.070-  39 2.13  20 2.13  23 2.13  38 2.13   2 2.13
  66  0.333  1.000  0.070-  37 2.13  21 2.13  24 2.13  39 2.13   3 2.13
  67  0.666  0.333  0.070-  41 2.13  22 2.13  25 2.13  40 2.13   4 2.13
  68  0.666  0.666  0.070-  42 2.13  23 2.13  26 2.13  41 2.13   5 2.13
  69  0.666  1.000  0.070-  40 2.13  24 2.13  27 2.13  42 2.13   6 2.13
  70  1.000  0.333  0.070-  44 2.13  25 2.13  19 2.13  43 2.13   7 2.13
  71  1.000  0.666  0.070-  45 2.13  26 2.13  20 2.13  44 2.13   8 2.13
  72  1.000  1.000  0.070-  43 2.13  27 2.13  21 2.13  45 2.13   9 2.13
  73  0.166  0.333  0.036-  19 2.09  47 2.13  10 2.13   1 2.13   7 2.13  46 2.13
  74  0.166  0.666  0.036-  20 2.09  48 2.13  11 2.13   2 2.13   8 2.13  47 2.13
  75  0.166  1.000  0.036-  21 2.09  46 2.13  12 2.13   3 2.13   9 2.13  48 2.13
  76  0.500  0.333  0.036-  22 2.09  50 2.13   4 2.13  13 2.13   1 2.13  49 2.13
  77  0.500  0.666  0.036-  23 2.09  51 2.13   5 2.13  14 2.13   2 2.13  50 2.13
  78  0.500  1.000  0.036-  24 2.09  49 2.13   6 2.13  15 2.13   3 2.13  51 2.13
  79  0.833  0.333  0.036-  25 2.09  53 2.13  16 2.13   7 2.13   4 2.13  52 2.13
  80  0.833  0.666  0.036-  26 2.09  54 2.13  17 2.13   8 2.13   5 2.13  53 2.13
  81  0.833  1.000  0.036-  27 2.09  52 2.13  18 2.13   9 2.13   6 2.13  54 2.13
  82  0.333  0.166  0.036-  37 2.09   3 2.13  28 2.13  46 2.13  49 2.13   1 2.13
  83  0.333  0.500  0.036-  38 2.09   1 2.13  29 2.13  47 2.13  50 2.13   2 2.13
  84  0.333  0.833  0.036-  39 2.09   2 2.13  30 2.13  48 2.13  51 2.13   3 2.13
  85  0.666  0.166  0.036-  40 2.09   6 2.13  31 2.13  49 2.13  52 2.13   4 2.13
  86  0.666  0.500  0.036-  41 2.09   4 2.13  32 2.13  50 2.13  53 2.13   5 2.13
  87  0.666  0.833  0.036-  42 2.09   5 2.13  33 2.13  51 2.13  54 2.13   6 2.13
  88  1.000  0.166  0.036-  43 2.09   9 2.13  52 2.13  34 2.13  46 2.13   7 2.13
  89  1.000  0.500  0.036-  44 2.09   7 2.13  53 2.13  35 2.13  47 2.13   8 2.13
  90  1.000  0.833  0.036-  45 2.09   8 2.13  54 2.13  36 2.13  48 2.13   9 2.13
  91  0.166  0.166  0.002-  12 2.13  28 2.13  46 2.13  34 2.13  10 2.13
  92  0.166  0.500  0.002-  10 2.13  29 2.13  47 2.13  35 2.13  11 2.13
  93  0.166  0.833  0.002-  11 2.13  30 2.13  48 2.13  36 2.13  12 2.13
  94  0.500  0.166  0.002-  15 2.13  31 2.13  49 2.13  28 2.13  13 2.13
  95  0.500  0.500  0.002-  13 2.13  32 2.13  50 2.13  29 2.13  14 2.13
  96  0.500  0.833  0.002-  14 2.13  33 2.13  51 2.13  30 2.13  15 2.13
  97  0.833  0.166  0.002-  18 2.13  52 2.13  34 2.13  31 2.13  16 2.13
  98  0.833  0.500  0.002-  16 2.13  53 2.13  35 2.13  32 2.13  17 2.13
  99  0.833  0.833  0.002-  17 2.13  54 2.13  36 2.13  33 2.13  18 2.13
 100  0.166  0.166  0.070-  21 2.13  37 2.13  43 2.13  19 2.13  46 2.13
 101  0.166  0.500  0.070-  19 2.13  38 2.13  44 2.13  20 2.13  47 2.13
 102  0.166  0.833  0.070-  20 2.13  39 2.13  45 2.13  21 2.13  48 2.13
 103  0.500  0.166  0.070-  24 2.13  40 2.13  37 2.13  22 2.13  49 2.13
 104  0.500  0.500  0.070-  22 2.13  41 2.13  38 2.13  23 2.13  50 2.13
 105  0.500  0.833  0.070-  23 2.13  42 2.13  39 2.13  24 2.13  51 2.13
 106  0.833  0.166  0.070-  27 2.13  43 2.13  40 2.13  25 2.13  52 2.13
 107  0.833  0.500  0.070-  25 2.13  44 2.13  41 2.13  26 2.13  53 2.13
 108  0.833  0.833  0.070-  26 2.13  45 2.13  42 2.13  27 2.13  54 2.13
 
  LATTYP: Found a simple tetragonal cell.
 ALAT       =    12.7800006866
 C/A-ratio  =     4.8855929668
  
  Lattice vectors:
  
 A1 = (  12.7800006866,   0.0000000000,   0.0000000000)
 A2 = (   0.0000000000,  12.7800006866,   0.0000000000)
 A3 = (   0.0000000000,   0.0000000000,  62.4378814697)


Analysis of symmetry for initial positions (statically):
=====================================================================
 Subroutine PRICEL returns following result:
 
  LATTYP: Found a simple tetragonal cell.
 ALAT       =     3.0122770257
 C/A-ratio  =    20.7278019040
  
  Lattice vectors:
  
 A1 = (   2.1299990324,  -2.1300039910,   0.0000000000)
 A2 = (   2.1299990324,   2.1299959908,   0.0000000000)
 A3 = (   0.0000000000,   0.0000000000,  62.4378814697)
 
  18 primitive cells build up your supercell.
 

 Routine SETGRP: Setting up the symmetry group for a 
 simple tetragonal supercell.


 Subroutine GETGRP returns: Found  8 space group operations
 (whereof  2 operations were pure point group operations)
 out of a pool of 16 trial point group operations.


The static configuration has the point symmetry C_1h.
 The point group associated with its full space group is C_4v.


Analysis of symmetry for dynamics (positions and initial velocities):
=====================================================================
 Subroutine PRICEL returns following result:
 
  LATTYP: Found a simple tetragonal cell.
 ALAT       =     3.0122770257
 C/A-ratio  =    20.7278019040
  
  Lattice vectors:
  
 A1 = (   2.1299990324,  -2.1300039910,   0.0000000000)
 A2 = (   2.1299990324,   2.1299959908,   0.0000000000)
 A3 = (   0.0000000000,   0.0000000000,  62.4378814697)
 
  18 primitive cells build up your supercell.
 

 Routine SETGRP: Setting up the symmetry group for a 
 simple tetragonal supercell.


 Subroutine GETGRP returns: Found  8 space group operations
 (whereof  2 operations were pure point group operations)
 out of a pool of 16 trial point group operations.


The dynamic configuration has the point symmetry C_1h.
 The point group associated with its full space group is C_4v.


Analysis of constrained symmetry for selective dynamics:
=====================================================================
 Subroutine PRICEL returns following result:
 
  LATTYP: Found a simple tetragonal cell.
 ALAT       =     3.0122770257
 C/A-ratio  =    20.7278019040
  
  Lattice vectors:
  
 A1 = (   2.1299990324,  -2.1300039910,   0.0000000000)
 A2 = (   2.1299990324,   2.1299959908,   0.0000000000)
 A3 = (   0.0000000000,   0.0000000000,  62.4378814697)
 
  18 primitive cells build up your supercell.
 

 Routine SETGRP: Setting up the symmetry group for a 
 simple tetragonal supercell.


 Subroutine GETGRP returns: Found  8 space group operations
 (whereof  2 operations were pure point group operations)
 out of a pool of 16 trial point group operations.


The constrained configuration has the point symmetry C_1h.
 The point group associated with its full space group is C_4v.


Analysis of structural, dynamic, and magnetic symmetry:
=====================================================================
 Subroutine PRICEL returns following result:
 
  LATTYP: Found a simple tetragonal cell.
 ALAT       =     3.0122770257
 C/A-ratio  =    20.7278019040
  
  Lattice vectors:
  
 A1 = (   2.1299990324,  -2.1300039910,   0.0000000000)
 A2 = (   2.1299990324,   2.1299959908,   0.0000000000)
 A3 = (   0.0000000000,   0.0000000000,  62.4378814697)
 
  18 primitive cells build up your supercell.
 

 Routine SETGRP: Setting up the symmetry group for a 
 simple tetragonal supercell.


 Subroutine GETGRP returns: Found  4 space group operations
 (whereof  1 operations were pure point group operations)
 out of a pool of 16 trial point group operations.


The overall configuration has the point symmetry C_1 .
 The point group associated with its full space group is C_2v.


 Subroutine INISYM returns: Found  4 space group operations
 (whereof  1 operations are pure point group operations),
 and found    18 'primitive' translations


----------------------------------------------------------------------------------------

                                     Primitive cell                                     

  volume of cell :     566.5486

  direct lattice vectors                    reciprocal lattice vectors
     2.129999032 -2.130003991  0.000000000     0.234741450 -0.234741785  0.000000000
     2.129999032  2.129995991  0.000000000     0.234742332  0.234741785  0.000000000
     0.000000000  0.000000000 62.437881470     0.000000000  0.000000000  0.016015918

  length of vectors
     3.012277026  3.012271369 62.437881470     0.331974779  0.331975402  0.016015918

  position of ions in fractional coordinates (direct lattice)
     0.999998216  0.998879016  0.035715513
     0.499999110  0.498878122  0.001601592
     0.499999110  0.498878122  0.069130480
     0.999997589  0.998879103  0.001601608
     0.999997589  0.998879103  0.069841419
     0.499999200  0.498877492  0.035715494

  ion indices of the primitive-cell ions
   primitive index   ion index
                 1           1
                 2          29
                 3          38
                 4          55
                 5          64
                 6          83

----------------------------------------------------------------------------------------

 
 
 KPOINTS: KPOINTS                                 

Automatic generation of k-mesh.
 Grid dimensions read from file:
 generate k-points for:    2    2    1

 Generating k-lattice:

  Cartesian coordinates                     Fractional coordinates (reciprocal lattice)
     0.039123629  0.000000000  0.000000000     0.500000000  0.000000000  0.000000000
     0.000000000  0.039123629  0.000000000     0.000000000  0.500000000  0.000000000
     0.000000000  0.000000000  0.016015918     0.000000000  0.000000000  1.000000000

  Length of vectors
     0.039123629  0.039123629  0.016015918

  Shift w.r.t. Gamma in fractional coordinates (k-lattice)
     0.000000000  0.000000000  0.000000000

 
 Subroutine IBZKPT returns following result:
 ===========================================
 
 Found      4 irreducible k-points:
 
 Following reciprocal coordinates:
            Coordinates               Weight
  0.000000  0.000000  0.000000      1.000000
  0.500000  0.000000  0.000000      1.000000
  0.000000  0.500000  0.000000      1.000000
  0.500000  0.500000  0.000000      1.000000
 
 Following cartesian coordinates:
            Coordinates               Weight
  0.000000  0.000000  0.000000      1.000000
  0.039124  0.000000  0.000000      1.000000
  0.000000  0.039124  0.000000      1.000000
  0.039124  0.039124  0.000000      1.000000
 


--------------------------------------------------------------------------------------------------------




 Dimension of arrays:
   k-points           NKPTS =      4   k-points in BZ     NKDIM =      4   number of bands    NBANDS=    494
   number of dos      NEDOS =    301   number of ions     NIONS =    108
   non local maximal  LDIM  =      6   non local SUM 2l+1 LMDIM =     18
   total plane-waves  NPLWV = ******
   max r-space proj   IRMAX =   5890   max aug-charges    IRDMAX=  22751
   dimension x,y,z NGX =   108 NGY =  108 NGZ =  500
   dimension x,y,z NGXF=   216 NGYF=  216 NGZF= 1000
   support grid    NGXF=   216 NGYF=  216 NGZF= 1000
   ions per type =              54  54
   NGX,Y,Z   is equivalent  to a cutoff of  14.05, 14.05, 13.31 a.u.
   NGXF,Y,Z  is equivalent  to a cutoff of  28.10, 28.10, 26.63 a.u.

 SYSTEM =  CoO Bulk Cubic Fm3m                     
 POSCAR =  Generated by VASPKIT code               

 Startparameter for this run:
   NWRITE =      2    write-flag & timer
   PREC   = accura    normal or accurate (medium, high low for compatibility)
   ISTART =      0    job   : 0-new  1-cont  2-samecut
   ICHARG =      2    charge: 1-file 2-atom 10-const
   ISPIN  =      2    spin polarized calculation?
   LNONCOLLINEAR =      F non collinear calculations
   LSORBIT =      F    spin-orbit coupling
   INIWAV =      1    electr: 0-lowe 1-rand  2-diag
   LASPH  =      T    aspherical Exc in radial PAW
 Electronic Relaxation 1
   ENCUT  =  600.0 eV  44.10 Ry    6.64 a.u.  25.52 25.52124.70*2*pi/ulx,y,z
   ENINI  =  600.0     initial cutoff
   ENAUG  =  605.4 eV  augmentation charge cutoff
   NELM   =    300;   NELMIN=  5; NELMDL= -5     # of ELM steps 
   EDIFF  = 0.1E-06   stopping-criterion for ELM
   LREAL  =      T    real-space projection
   NLSPLINE    = F    spline interpolate recip. space projectors
   LCOMPAT=      F    compatible to vasp.4.4
   GGA_COMPAT  = T    GGA compatible to vasp.4.4-vasp.4.6
   LMAXPAW     = -100 max onsite density
   LMAXMIX     =    4 max onsite mixed and CHGCAR
   VOSKOWN=      0    Vosko Wilk Nusair interpolation
   ROPT   =   -0.00025  -0.00025
 Ionic relaxation
   EDIFFG = -.1E-02   stopping-criterion for IOM
   NSW    =      0    number of steps for IOM
   NBLOCK =      1;   KBLOCK =      1    inner block; outer block 
   IBRION =     -1    ionic relax: 0-MD 1-quasi-New 2-CG
   NFREE  =      0    steps in history (QN), initial steepest desc. (CG)
   ISIF   =      2    stress and relaxation
   IWAVPR =     10    prediction:  0-non 1-charg 2-wave 3-comb
   ISYM   =      2    0-nonsym 1-usesym 2-fastsym
   LCORR  =      T    Harris-Foulkes like correction to forces

   POTIM  = 0.5000    time-step for ionic-motion
   TEIN   =    0.0    initial temperature
   TEBEG  =    0.0;   TEEND  =   0.0 temperature during run
   SMASS  =  -3.00    Nose mass-parameter (am)
   estimated Nose-frequenzy (Omega)   =  0.10E-29 period in steps = 0.13E+47 mass=  -0.373E-26a.u.
   SCALEE = 1.0000    scale energy and forces
   NPACO  =    256;   APACO  = 10.0  distance and # of slots for P.C.
   PSTRESS=    0.0 pullay stress

  Mass of Ions in am
   POMASS =  58.93 16.00
  Ionic Valenz
   ZVAL   =   9.00  6.00
  Atomic Wigner-Seitz radii
   RWIGS  =  -1.00 -1.00
  virtual crystal weights 
   VCA    =   1.00  1.00
   NELECT =     810.0000    total number of electrons
   NUPDOWN=      -1.0000    fix difference up-down

 DOS related values:
   EMIN   =  10.00;   EMAX   =-10.00  energy-range for DOS
   EFERMI =   0.00;   METHOD = LEGACY      
   ISMEAR =     0;   SIGMA  =   0.03  broadening in eV -4-tet -1-fermi 0-gaus

 Electronic relaxation 2 (details)
   IALGO  =     38    algorithm
   LDIAG  =      T    sub-space diagonalisation (order eigenvalues)
   LSUBROT=      F    optimize rotation matrix (better conditioning)
   TURBO    =      0    0=normal 1=particle mesh
   IRESTART =      0    0=no restart 2=restart with 2 vectors
   NREBOOT  =      0    no. of reboots
   NMIN     =      0    reboot dimension
   EREF     =   0.00    reference energy to select bands
   IMIX   =      4    mixing-type and parameters
     AMIX     =   0.40;   BMIX     =  1.00
     AMIX_MAG =   1.60;   BMIX_MAG =  1.00
     AMIN     =   0.10
     WC   =   100.;   INIMIX=   1;  MIXPRE=   1;  MAXMIX= -45

 Intra band minimization:
   WEIMIN = 0.0000     energy-eigenvalue tresh-hold
   EBREAK =  0.51E-10  absolut break condition
   DEPER  =   0.30     relativ break condition  

   TIME   =   0.40     timestep for ELM

  volume/ion in A,a.u.               =      94.42       637.21
  Fermi-wavevector in a.u.,A,eV,Ry     =   0.703720  1.329838  6.737901  0.495222
  Thomas-Fermi vector in A             =   1.788767
 
 Write flags
   LWAVE        =      F    write WAVECAR
   LDOWNSAMPLE  =      F    k-point downsampling of WAVECAR
   LCHARG       =      F    write CHGCAR
   LVTOT        =      F    write LOCPOT, total local potential
   LVHAR        =      F    write LOCPOT, Hartree potential only
   WRT_POTENTIAL= false  ! write potential to hdf5 file
   LELF         =      F    write electronic localiz. function (ELF)
   LORBIT       =     11    0 simple, 1 ext, 2 COOP (PROOUT), +10 PAW based schemes


 Dipole corrections
   LMONO      =      F    monopole corrections only (constant potential shift)
   LDIPOL     =      F    correct potential (dipole corrections)
   IDIPOL     =      0    1-x, 2-y, 3-z, 4-all directions 
   EPSILON    =  1.0000000 bulk dielectric constant
   LVACPOTAV  =      F  vacuum potentials using an averaging scheme for the charge density
   VACPOTFLAT =  0.1000000 required flatness to determine vacuum potential
 LDA+U is selected, type is set to LDAUTYPE =  2
   angular momentum for each species LDAUL =     2   -1
   U (eV)           for each species LDAUU =   3.0  0.0
   J (eV)           for each species LDAUJ =   0.0  0.0
 Exchange correlation treatment:
   GGA     = PE    functional components
   XC_C    = 1    coefficients multiplying the functional components
   LIBXC   =     F    Libxc                    
   VOSKOWN =     0    Vosko Wilk Nusair interpolation
   LHFCALC =     F    Hartree Fock is set to
   LHFONE  =     F    Hartree Fock one center treatment
   AEXX    =    0.0000 exact exchange contribution

 Parameters of functionals:
   PE:
     No parameter
 
 Van der Waals corrections
   IVDW    =     0    specifies the selected vdW correction

 Linear response parameters
   LEPSILON=     F    determine dielectric tensor
   LRPA    =     F    only Hartree local field effects (RPA)
   LNABLA  =     F    use nabla operator in PAW spheres
   LVEL    =     F    velocity operator in full k-point grid
   CSHIFT  =0.1000    complex shift for real part using Kramers Kronig
   OMEGAMAX=  -1.0    maximum frequency
   DEG_THRESHOLD= 0.2000000E-02 threshold for treating states as degnerate
   RTIME   =   -0.100 relaxation time in fs
  (WPLASMAI=    0.000 imaginary part of plasma frequency in eV, 0.658/RTIME)
   DFIELD  = 0.0000000 0.0000000 0.0000000 field for delta impulse in time
 
  Optional k-point grid parameters
   LKPOINTS_OPT  =     F    use optional k-point grid
   KPOINTS_OPT_MODE=     1    mode for optional k-point grid
 
 Orbital magnetization related:
   ORBITALMAG=     F  switch on orbital magnetization
   LCHIMAG   =     F  perturbation theory with respect to B field
   DQ        =  0.001000  dq finite difference perturbation B field
   LLRAUG    =     F  two centre corrections for induced B field
   LBONE     =     F  B-component reconstruction in AE one-centre
   LVGVCALC  =     T  calculate vGv susceptibility
   LVGVAPPL  =     F  apply vGv susceptibility instead of pGv for G=0

 Random number generation:
   RANDOM_GENERATOR = DEFAULT
   PCG_SEED         = not used
 -----------------------------------------------------------------------------
|                                                                             |
|           W    W    AA    RRRRR   N    N  II  N    N   GGGG   !!!           |
|           W    W   A  A   R    R  NN   N  II  NN   N  G    G  !!!           |
|           W    W  A    A  R    R  N N  N  II  N N  N  G       !!!           |
|           W WW W  AAAAAA  RRRRR   N  N N  II  N  N N  G  GGG   !            |
|           WW  WW  A    A  R   R   N   NN  II  N   NN  G    G                |
|           W    W  A    A  R    R  N    N  II  N    N   GGGG   !!!           |
|                                                                             |
|     One of the lattice vectors is very long (>50 A), but AMIN is rather     |
|     large. This can spoil convergence since charge sloshing might occur     |
|     along the long lattice vector. If problems with convergence are         |
|     observed, try to decrease AMIN to a smaller value (e.g. 0.01).          |
|     Note: This warning only applies if the self-consistency cycle is        |
|     used.                                                                   |
|                                                                             |
 -----------------------------------------------------------------------------



--------------------------------------------------------------------------------------------------------


 Static calculation
 charge density and potential will be updated during run
 spin polarized calculation
 Variant of blocked Davidson
 Davidson routine will perform the subspace rotation
 perform sub-space diagonalisation
    after iterative eigenvector-optimisation
 modified Broyden-mixing scheme, WC =      100.0
 initial mixing is a Kerker type mixing with AMIX =  0.4000 and BMIX =      1.0000
 Hartree-type preconditioning will be used
 using additional bands           89
 real space projection scheme for non local part
 use partial core corrections
 calculate Harris-corrections to forces 
   (improved forces if not selfconsistent)
 use gradient corrections 
 use of overlap-Matrix (Vanderbilt PP)
 Gauss-broadening in eV      SIGMA  =   0.03


--------------------------------------------------------------------------------------------------------


  energy-cutoff  :      600.00
  volume of cell :    10197.88
      direct lattice vectors                 reciprocal lattice vectors
    12.780000687  0.000000000  0.000000000     0.078247257  0.000000000  0.000000000
     0.000000000 12.780000687  0.000000000     0.000000000  0.078247257  0.000000000
     0.000000000  0.000000000 62.437881470     0.000000000  0.000000000  0.016015918

  length of vectors
    12.780000687 12.780000687 62.437881470     0.078247257  0.078247257  0.016015918


 
 k-points in units of 2pi/SCALE and weight: KPOINTS                                 
   0.00000000  0.00000000  0.00000000       0.250
   0.03912363  0.00000000  0.00000000       0.250
   0.00000000  0.03912363  0.00000000       0.250
   0.03912363  0.03912363  0.00000000       0.250
 
 k-points in reciprocal lattice and weights: KPOINTS                                 
   0.00000000  0.00000000  0.00000000       0.250
   0.50000000  0.00000000  0.00000000       0.250
   0.00000000  0.50000000  0.00000000       0.250
   0.50000000  0.50000000  0.00000000       0.250
 
 position of ions in fractional coordinates (direct lattice) 
   0.33314604  0.33314616  0.03571551
   0.33314604  0.66647947  0.03571551
   0.33314604  0.99981284  0.03571551
   0.66647935  0.33314616  0.03571551
   0.66647935  0.66647947  0.03571551
   0.66647935  0.99981284  0.03571551
   0.99981272  0.33314616  0.03571551
   0.99981272  0.66647947  0.03571551
   0.99981272  0.99981284  0.03571551
   0.16647930  0.33314616  0.00160159
   0.16647930  0.66647947  0.00160159
   0.16647930  0.99981284  0.00160159
   0.49981263  0.33314616  0.00160159
   0.49981263  0.66647947  0.00160159
   0.49981263  0.99981284  0.00160159
   0.83314598  0.33314616  0.00160159
   0.83314598  0.66647947  0.00160159
   0.83314598  0.99981284  0.00160159
   0.16647930  0.33314616  0.06913048
   0.16647930  0.66647947  0.06913048
   0.16647930  0.99981284  0.06913048
   0.49981263  0.33314616  0.06913048
   0.49981263  0.66647947  0.06913048
   0.49981263  0.99981284  0.06913048
   0.83314598  0.33314616  0.06913048
   0.83314598  0.66647947  0.06913048
   0.83314598  0.99981284  0.06913048
   0.33314604  0.16647919  0.00160159
   0.33314604  0.49981251  0.00160159
   0.33314604  0.83314586  0.00160159
   0.66647935  0.16647919  0.00160159
   0.66647935  0.49981251  0.00160159
   0.66647935  0.83314586  0.00160159
   0.99981272  0.16647919  0.00160159
   0.99981272  0.49981251  0.00160159
   0.99981272  0.83314586  0.00160159
   0.33314604  0.16647919  0.06913048
   0.33314604  0.49981251  0.06913048
   0.33314604  0.83314586  0.06913048
   0.66647935  0.16647919  0.06913048
   0.66647935  0.49981251  0.06913048
   0.66647935  0.83314586  0.06913048
   0.99981272  0.16647919  0.06913048
   0.99981272  0.49981251  0.06913048
   0.99981272  0.83314586  0.06913048
   0.16647930  0.16647919  0.03571551
   0.16647930  0.49981251  0.03571551
   0.16647930  0.83314586  0.03571551
   0.49981263  0.16647919  0.03571551
   0.49981263  0.49981251  0.03571551
   0.49981263  0.83314586  0.03571551
   0.83314598  0.16647919  0.03571551
   0.83314598  0.49981251  0.03571551
   0.83314598  0.83314586  0.03571551
   0.33314595  0.33314627  0.00160161
   0.33314595  0.66647959  0.00160161
   0.33314595  0.99981296  0.00160161
   0.66647929  0.33314627  0.00160161
   0.66647929  0.66647959  0.00160161
   0.66647929  0.99981296  0.00160161
   0.99981260  0.33314627  0.00160161
   0.99981260  0.66647959  0.00160161
   0.99981260  0.99981296  0.00160161
   0.33314595  0.33314627  0.06984142
   0.33314595  0.66647959  0.06984142
   0.33314595  0.99981296  0.06984142
   0.66647929  0.33314627  0.06984142
   0.66647929  0.66647959  0.06984142
   0.66647929  0.99981296  0.06984142
   0.99981260  0.33314627  0.06984142
   0.99981260  0.66647959  0.06984142
   0.99981260  0.99981296  0.06984142
   0.16647939  0.33314627  0.03571549
   0.16647939  0.66647959  0.03571549
   0.16647939  0.99981296  0.03571549
   0.49981272  0.33314627  0.03571549
   0.49981272  0.66647959  0.03571549
   0.49981272  0.99981296  0.03571549
   0.83314604  0.33314627  0.03571549
   0.83314604  0.66647959  0.03571549
   0.83314604  0.99981296  0.03571549
   0.33314595  0.16647907  0.03571549
   0.33314595  0.49981239  0.03571549
   0.33314595  0.83314574  0.03571549
   0.66647929  0.16647907  0.03571549
   0.66647929  0.49981239  0.03571549
   0.66647929  0.83314574  0.03571549
   0.99981260  0.16647907  0.03571549
   0.99981260  0.49981239  0.03571549
   0.99981260  0.83314574  0.03571549
   0.16647939  0.16647907  0.00160161
   0.16647939  0.49981239  0.00160161
   0.16647939  0.83314574  0.00160161
   0.49981272  0.16647907  0.00160161
   0.49981272  0.49981239  0.00160161
   0.49981272  0.83314574  0.00160161
   0.83314604  0.16647907  0.00160161
   0.83314604  0.49981239  0.00160161
   0.83314604  0.83314574  0.00160161
   0.16647939  0.16647907  0.06984142
   0.16647939  0.49981239  0.06984142
   0.16647939  0.83314574  0.06984142
   0.49981272  0.16647907  0.06984142
   0.49981272  0.49981239  0.06984142
   0.49981272  0.83314574  0.06984142
   0.83314604  0.16647907  0.06984142
   0.83314604  0.49981239  0.06984142
   0.83314604  0.83314574  0.06984142
 
 position of ions in cartesian coordinates  (Angst):
   4.25760657  4.25760809  2.23000097
   4.25760657  8.51760806  2.23000097
   4.25760657 12.77760879  2.23000097
   8.51760654  4.25760809  2.23000097
   8.51760654  8.51760806  2.23000097
   8.51760654 12.77760879  2.23000097
  12.77760727  4.25760809  2.23000097
  12.77760727  8.51760806  2.23000097
  12.77760727 12.77760879  2.23000097
   2.12760562  4.25760809  0.10000001
   2.12760562  8.51760806  0.10000001
   2.12760562 12.77760879  0.10000001
   6.38760579  4.25760809  0.10000001
   6.38760579  8.51760806  0.10000001
   6.38760579 12.77760879  0.10000001
  10.64760615  4.25760809  0.10000001
  10.64760615  8.51760806  0.10000001
  10.64760615 12.77760879  0.10000001
   2.12760562  4.25760809  4.31636071
   2.12760562  8.51760806  4.31636071
   2.12760562 12.77760879  4.31636071
   6.38760579  4.25760809  4.31636071
   6.38760579  8.51760806  4.31636071
   6.38760579 12.77760879  4.31636071
  10.64760615  4.25760809  4.31636071
  10.64760615  8.51760806  4.31636071
  10.64760615 12.77760879  4.31636071
   4.25760657  2.12760410  0.10000001
   4.25760657  6.38760427  0.10000001
   4.25760657 10.64760462  0.10000001
   8.51760654  2.12760410  0.10000001
   8.51760654  6.38760427  0.10000001
   8.51760654 10.64760462  0.10000001
  12.77760727  2.12760410  0.10000001
  12.77760727  6.38760427  0.10000001
  12.77760727 10.64760462  0.10000001
   4.25760657  2.12760410  4.31636071
   4.25760657  6.38760427  4.31636071
   4.25760657 10.64760462  4.31636071
   8.51760654  2.12760410  4.31636071
   8.51760654  6.38760427  4.31636071
   8.51760654 10.64760462  4.31636071
  12.77760727  2.12760410  4.31636071
  12.77760727  6.38760427  4.31636071
  12.77760727 10.64760462  4.31636071
   2.12760562  2.12760410  2.23000097
   2.12760562  6.38760427  2.23000097
   2.12760562 10.64760462  2.23000097
   6.38760579  2.12760410  2.23000097
   6.38760579  6.38760427  2.23000097
   6.38760579 10.64760462  2.23000097
  10.64760615  2.12760410  2.23000097
  10.64760615  6.38760427  2.23000097
  10.64760615 10.64760462  2.23000097
   4.25760542  4.25760961  0.10000101
   4.25760542  8.51760959  0.10000101
   4.25760542 12.77761033  0.10000101
   8.51760578  4.25760961  0.10000101
   8.51760578  8.51760959  0.10000101
   8.51760578 12.77761033  0.10000101
  12.77760575  4.25760961  0.10000101
  12.77760575  8.51760959  0.10000101
  12.77760575 12.77761033  0.10000101
   4.25760542  4.25760961  4.36075027
   4.25760542  8.51760959  4.36075027
   4.25760542 12.77761033  4.36075027
   8.51760578  4.25760961  4.36075027
   8.51760578  8.51760959  4.36075027
   8.51760578 12.77761033  4.36075027
  12.77760575  4.25760961  4.36075027
  12.77760575  8.51760959  4.36075027
  12.77760575 12.77761033  4.36075027
   2.12760677  4.25760961  2.22999978
   2.12760677  8.51760959  2.22999978
   2.12760677 12.77761033  2.22999978
   6.38760693  4.25760961  2.22999978
   6.38760693  8.51760959  2.22999978
   6.38760693 12.77761033  2.22999978
  10.64760691  4.25760961  2.22999978
  10.64760691  8.51760959  2.22999978
  10.64760691 12.77761033  2.22999978
   4.25760542  2.12760258  2.22999978
   4.25760542  6.38760274  2.22999978
   4.25760542 10.64760310  2.22999978
   8.51760578  2.12760258  2.22999978
   8.51760578  6.38760274  2.22999978
   8.51760578 10.64760310  2.22999978
  12.77760575  2.12760258  2.22999978
  12.77760575  6.38760274  2.22999978
  12.77760575 10.64760310  2.22999978
   2.12760677  2.12760258  0.10000101
   2.12760677  6.38760274  0.10000101
   2.12760677 10.64760310  0.10000101
   6.38760693  2.12760258  0.10000101
   6.38760693  6.38760274  0.10000101
   6.38760693 10.64760310  0.10000101
  10.64760691  2.12760258  0.10000101
  10.64760691  6.38760274  0.10000101
  10.64760691 10.64760310  0.10000101
   2.12760677  2.12760258  4.36075027
   2.12760677  6.38760274  4.36075027
   2.12760677 10.64760310  4.36075027
   6.38760693  2.12760258  4.36075027
   6.38760693  6.38760274  4.36075027
   6.38760693 10.64760310  4.36075027
  10.64760691  2.12760258  4.36075027
  10.64760691  6.38760274  4.36075027
  10.64760691 10.64760310  4.36075027
 


--------------------------------------------------------------------------------------------------------


 k-point     1 :   0.0000 0.0000 0.0000  plane waves:  340365
 k-point     2 :   0.5000 0.0000 0.0000  plane waves:  340256
 k-point     3 :   0.0000 0.5000 0.0000  plane waves:  340256
 k-point     4 :   0.5000 0.5000 0.0000  plane waves:  340128

 maximum and minimum number of plane-waves per node :    340365   340128

 maximum number of plane-waves:    340365
 maximum index in each direction: 
   IXMAX=   25   IYMAX=   25   IZMAX=  124
   IXMIN=  -26   IYMIN=  -26   IZMIN= -124


 serial   3D FFT for wavefunctions
 parallel 3D FFT for charge:
    minimum data exchange during FFTs selected (reduces bandwidth)


 total amount of memory used by VASP MPI-rank0  1648083. kBytes
=======================================================================

   base      :      30000. kBytes
   nonlr-proj:      73207. kBytes
   fftplans  :      87631. kBytes
   grid      :     622702. kBytes
   one-center:       3359. kBytes
   wavefun   :     831184. kBytes
 
     INWAV:  cpu time      0.0000: real time      0.0002
 Broyden mixing: mesh for mixing (old mesh)
   NGX = 51   NGY = 51   NGZ =249
  (NGX  =216   NGY  =216   NGZ  =***)
  gives a total of 647649 points

 initial charge density was supplied:
 charge density of overlapping atoms calculated
 number of electron     810.0000000 magnetization       0.0000000
 keeping initial charge density in first step


--------------------------------------------------------------------------------------------------------


 Maximum index for non-local projection operator         5683
 Maximum index for augmentation-charges         1673 (set IRDMAX)


--------------------------------------------------------------------------------------------------------


 First call to EWALD:  gamma=   0.082
 Maximum number of real-space cells 4x 4x 1
 Maximum number of reciprocal cells 2x 2x 7

    FEWALD:  cpu time      0.0083: real time      0.0087


--------------------------------------- Ionic step        1  -------------------------------------------




--------------------------------------- Iteration      1(   1)  ---------------------------------------


    POTLOK:  cpu time      3.6230: real time      3.6520
    SETDIJ:  cpu time      0.4735: real time      0.4784
     EDDAV:  cpu time     66.1143: real time     66.6023
       DOS:  cpu time      0.0056: real time      0.0073
    --------------------------------------------
      LOOP:  cpu time     70.2165: real time     70.7400

 eigenvalue-minimisations  :  8112
 total energy-change (2. order) : 0.7808089E+04  (-0.2966366E+05)
 number of electron     810.0000000 magnetization       0.0000000
 augmentation part      810.0000000 magnetization       0.0000000

 Free energy of the ion-electron system (eV)
  ---------------------------------------------------
  alpha Z        PSCENC =       301.19609653
  Ewald energy   TEWEN  =   1485218.84116291
  -Hartree energ DENC   =  -1545204.55431423
  -exchange      EXHF   =         0.00000000
  -V(xc)+E(xc)   XCENC  =      2493.56546176
  PAW double counting   =     57491.92558585   -59859.28423938
  entropy T*S    EENTRO =        -0.05013352
  eigenvalues    EBANDS =        97.17999342
  atomic energy  EATOM  =     67269.26967399
  Solvation  Ediel_sol  =         0.00000000
  ---------------------------------------------------
  free energy    TOTEN  =      7808.08928733 eV

  energy without entropy =     7808.13942085  energy(sigma->0) =     7808.11435409


--------------------------------------------------------------------------------------------------------




--------------------------------------- Iteration      1(   2)  ---------------------------------------


     EDDAV:  cpu time     79.7187: real time     80.2944
       DOS:  cpu time      0.0016: real time      0.0016
    --------------------------------------------
      LOOP:  cpu time     79.7202: real time     80.2959

 eigenvalue-minimisations  :  9256
 total energy-change (2. order) :-0.6104062E+04  (-0.5840839E+04)
 number of electron     810.0000000 magnetization       0.0000000
 augmentation part      810.0000000 magnetization       0.0000000

 Free energy of the ion-electron system (eV)
  ---------------------------------------------------
  alpha Z        PSCENC =       301.19609653
  Ewald energy   TEWEN  =   1485218.84116291
  -Hartree energ DENC   =  -1545204.55431423
  -exchange      EXHF   =         0.00000000
  -V(xc)+E(xc)   XCENC  =      2493.56546176
  PAW double counting   =     57491.92558585   -59859.28423938
  entropy T*S    EENTRO =        -0.03666388
  eigenvalues    EBANDS =     -6006.89516705
  atomic energy  EATOM  =     67269.26967399
  Solvation  Ediel_sol  =         0.00000000
  ---------------------------------------------------
  free energy    TOTEN  =      1704.02759650 eV

  energy without entropy =     1704.06426038  energy(sigma->0) =     1704.04592844


--------------------------------------------------------------------------------------------------------




--------------------------------------- Iteration      1(   3)  ---------------------------------------


     EDDAV:  cpu time     95.0562: real time     95.6567
       DOS:  cpu time      0.0016: real time      0.0017
    --------------------------------------------
      LOOP:  cpu time     95.0579: real time     95.6584

 eigenvalue-minimisations  : 13104
 total energy-change (2. order) :-0.2174164E+04  (-0.2119620E+04)
 number of electron     810.0000000 magnetization       0.0000000
 augmentation part      810.0000000 magnetization       0.0000000

 Free energy of the ion-electron system (eV)
  ---------------------------------------------------
  alpha Z        PSCENC =       301.19609653
  Ewald energy   TEWEN  =   1485218.84116291
  -Hartree energ DENC   =  -1545204.55431423
  -exchange      EXHF   =         0.00000000
  -V(xc)+E(xc)   XCENC  =      2493.56546176
  PAW double counting   =     57491.92558585   -59859.28423938
  entropy T*S    EENTRO =        -0.08563597
  eigenvalues    EBANDS =     -8181.01068562
  atomic energy  EATOM  =     67269.26967399
  Solvation  Ediel_sol  =         0.00000000
  ---------------------------------------------------
  free energy    TOTEN  =      -470.13689416 eV

  energy without entropy =     -470.05125819  energy(sigma->0) =     -470.09407618


--------------------------------------------------------------------------------------------------------




--------------------------------------- Iteration      1(   4)  ---------------------------------------


     EDDAV:  cpu time     90.9596: real time     91.4863
       DOS:  cpu time      0.0019: real time      0.0019
    --------------------------------------------
      LOOP:  cpu time     90.9616: real time     91.4882

 eigenvalue-minimisations  : 11362
 total energy-change (2. order) :-0.2411167E+03  (-0.2335186E+03)
 number of electron     810.0000000 magnetization       0.0000000
 augmentation part      810.0000000 magnetization       0.0000000

 Free energy of the ion-electron system (eV)
  ---------------------------------------------------
  alpha Z        PSCENC =       301.19609653
  Ewald energy   TEWEN  =   1485218.84116291
  -Hartree energ DENC   =  -1545204.55431423
  -exchange      EXHF   =         0.00000000
  -V(xc)+E(xc)   XCENC  =      2493.56546176
  PAW double counting   =     57491.92558585   -59859.28423938
  entropy T*S    EENTRO =        -0.14213857
  eigenvalues    EBANDS =     -8422.07085595
  atomic energy  EATOM  =     67269.26967399
  Solvation  Ediel_sol  =         0.00000000
  ---------------------------------------------------
  free energy    TOTEN  =      -711.25356710 eV

  energy without entropy =     -711.11142852  energy(sigma->0) =     -711.18249781


--------------------------------------------------------------------------------------------------------




--------------------------------------- Iteration      1(   5)  ---------------------------------------


     EDDAV:  cpu time     93.3330: real time     93.9029
       DOS:  cpu time      0.0019: real time      0.0019
    CHARGE:  cpu time      8.8112: real time      8.8690
    MIXING:  cpu time      0.0961: real time      0.0983
    --------------------------------------------
      LOOP:  cpu time    102.2422: real time    102.8721

 eigenvalue-minimisations  : 12220
 total energy-change (2. order) :-0.1068082E+02  (-0.9888449E+01)
 number of electron     810.0000201 magnetization      -0.0000000
 augmentation part      286.0487185 magnetization      -0.0000000

 Broyden mixing:
  rms(total) = 0.12619E+02    rms(broyden)= 0.12619E+02
  rms(prec ) = 0.12704E+02
  weight for this iteration     100.00

 Free energy of the ion-electron system (eV)
  ---------------------------------------------------
  alpha Z        PSCENC =       301.19609653
  Ewald energy   TEWEN  =   1485218.84116291
  -Hartree energ DENC   =  -1545204.55431423
  -exchange      EXHF   =         0.00000000
  -V(xc)+E(xc)   XCENC  =      2493.56546176
  PAW double counting   =     57491.92558585   -59859.28423938
  entropy T*S    EENTRO =        -0.14308526
  eigenvalues    EBANDS =     -8432.75073175
  atomic energy  EATOM  =     67269.26967399
  Solvation  Ediel_sol  =         0.00000000
  ---------------------------------------------------
  free energy    TOTEN  =      -721.93438958 eV

  energy without entropy =     -721.79130432  energy(sigma->0) =     -721.86284695


--------------------------------------------------------------------------------------------------------




--------------------------------------- Iteration      1(   6)  ---------------------------------------


    POTLOK:  cpu time      3.5548: real time      3.6005
    SETDIJ:  cpu time      0.4957: real time      0.4979
     EDDAV:  cpu time     96.6134: real time     97.1826
       DOS:  cpu time      0.0016: real time      0.0016
    CHARGE:  cpu time      7.9711: real time      8.0215
    MIXING:  cpu time      0.0976: real time      0.0981
    --------------------------------------------
      LOOP:  cpu time    108.7342: real time    109.4022

 eigenvalue-minimisations  : 12714
 total energy-change (2. order) :-0.5103435E+02  (-0.2836967E+03)
 number of electron     809.9999974 magnetization      -0.0000000
 augmentation part      354.8239148 magnetization      -0.0000000

 Broyden mixing:
  rms(total) = 0.23143E+02    rms(broyden)= 0.23143E+02
  rms(prec ) = 0.23258E+02
  weight for this iteration     100.00

 eigenvalues of (default mixing * dielectric matrix)
  average eigenvalue GAMMA=   0.1859
  0.1859

 Free energy of the ion-electron system (eV)
  ---------------------------------------------------
  alpha Z        PSCENC =       301.19609653
  Ewald energy   TEWEN  =   1485218.84116291
  -Hartree energ DENC   =  -1544901.25349536
  -exchange      EXHF   =         0.00000000
  -V(xc)+E(xc)   XCENC  =      2457.99347760
  PAW double counting   =     60970.07295671   -63041.12387039
  entropy T*S    EENTRO =        -0.02869319
  eigenvalues    EBANDS =     -9047.93604794
  atomic energy  EATOM  =     67269.26967399
  Solvation  Ediel_sol  =         0.00000000
  ---------------------------------------------------
  free energy    TOTEN  =      -772.96873914 eV

  energy without entropy =     -772.94004595  energy(sigma->0) =     -772.95439255


--------------------------------------------------------------------------------------------------------




--------------------------------------- Iteration      1(   7)  ---------------------------------------


    POTLOK:  cpu time      3.5779: real time      3.6277
    SETDIJ:  cpu time      3.8110: real time      3.8295
     EDDAV:  cpu time     90.2764: real time     90.7850
       DOS:  cpu time      0.0019: real time      0.0019
    CHARGE:  cpu time      8.1477: real time      8.1962
    MIXING:  cpu time      0.0988: real time      0.0993
    --------------------------------------------
      LOOP:  cpu time    105.9136: real time    106.5395

 eigenvalue-minimisations  : 11830
 total energy-change (2. order) : 0.1404781E+03  (-0.7215008E+02)
 number of electron     810.0000082 magnetization      -0.0000000
 augmentation part      328.0818912 magnetization      -0.0000000

 Broyden mixing:
  rms(total) = 0.11970E+02    rms(broyden)= 0.11969E+02
  rms(prec ) = 0.12079E+02
  weight for this iteration     100.00

 eigenvalues of (default mixing * dielectric matrix)
  average eigenvalue GAMMA=   0.3392
  0.4336  0.2447

 Free energy of the ion-electron system (eV)
  ---------------------------------------------------
  alpha Z        PSCENC =       301.19609653
  Ewald energy   TEWEN  =   1485218.84116291
  -Hartree energ DENC   =  -1544827.87522752
  -exchange      EXHF   =         0.00000000
  -V(xc)+E(xc)   XCENC  =      2424.01140632
  PAW double counting   =     62372.26696007   -64652.01272105
  entropy T*S    EENTRO =        -0.07232025
  eigenvalues    EBANDS =     -8738.11562710
  atomic energy  EATOM  =     67269.26967399
  Solvation  Ediel_sol  =         0.00000000
  ---------------------------------------------------
  free energy    TOTEN  =      -632.49059610 eV

  energy without entropy =     -632.41827585  energy(sigma->0) =     -632.45443598


--------------------------------------------------------------------------------------------------------




--------------------------------------- Iteration      1(   8)  ---------------------------------------


    POTLOK:  cpu time      3.5476: real time      3.5968
    SETDIJ:  cpu time      0.4814: real time      0.4835
     EDDAV:  cpu time    106.4042: real time    106.9819
       DOS:  cpu time      0.0011: real time      0.0011
    CHARGE:  cpu time      7.9727: real time      8.0203
    MIXING:  cpu time      0.1034: real time      0.1039
    --------------------------------------------
      LOOP:  cpu time    118.5105: real time    119.1877

 eigenvalue-minimisations  : 13104
 total energy-change (2. order) :-0.1112879E+03  (-0.8451927E+02)
 number of electron     810.0000072 magnetization      -0.0000000
 augmentation part      318.7427617 magnetization      -0.0000000

 Broyden mixing:
  rms(total) = 0.17850E+02    rms(broyden)= 0.17849E+02
  rms(prec ) = 0.18195E+02
  weight for this iteration     100.00

 eigenvalues of (default mixing * dielectric matrix)
  average eigenvalue GAMMA=   0.3587
  0.6250  0.3082  0.1430

 Free energy of the ion-electron system (eV)
  ---------------------------------------------------
  alpha Z        PSCENC =       301.19609653
  Ewald energy   TEWEN  =   1485218.84116291
  -Hartree energ DENC   =  -1545207.24955229
  -exchange      EXHF   =         0.00000000
  -V(xc)+E(xc)   XCENC  =      2414.91129496
  PAW double counting   =     63948.25436289   -66342.32493789
  entropy T*S    EENTRO =        -0.08846987
  eigenvalues    EBANDS =     -8346.58817300
  atomic energy  EATOM  =     67269.26967399
  Solvation  Ediel_sol  =         0.00000000
  ---------------------------------------------------
  free energy    TOTEN  =      -743.77854178 eV

  energy without entropy =     -743.69007190  energy(sigma->0) =     -743.73430684


--------------------------------------------------------------------------------------------------------




--------------------------------------- Iteration      1(   9)  ---------------------------------------


    POTLOK:  cpu time      3.5536: real time      3.5997
    SETDIJ:  cpu time      0.4787: real time      0.4808
     EDDAV:  cpu time     94.1689: real time     94.7289
       DOS:  cpu time      0.0016: real time      0.0016
    CHARGE:  cpu time      7.9732: real time      8.0244
    MIXING:  cpu time      0.0986: real time      0.0991
    --------------------------------------------
      LOOP:  cpu time    106.2746: real time    106.9345

 eigenvalue-minimisations  : 12506
 total energy-change (2. order) : 0.8023054E+02  (-0.2934641E+02)
 number of electron     810.0000060 magnetization      -0.0000000
 augmentation part      317.4841687 magnetization      -0.0000000

 Broyden mixing:
  rms(total) = 0.15080E+02    rms(broyden)= 0.15080E+02
  rms(prec ) = 0.15262E+02
  weight for this iteration     100.00

 eigenvalues of (default mixing * dielectric matrix)
  average eigenvalue GAMMA=   0.3911
  0.6340  0.6340  0.1622  0.1342

 Free energy of the ion-electron system (eV)
  ---------------------------------------------------
  alpha Z        PSCENC =       301.19609653
  Ewald energy   TEWEN  =   1485218.84116291
  -Hartree energ DENC   =  -1545355.11498352
  -exchange      EXHF   =         0.00000000
  -V(xc)+E(xc)   XCENC  =      2414.43658350
  PAW double counting   =     65015.45110478   -67450.12834058
  entropy T*S    EENTRO =        -0.05250476
  eigenvalues    EBANDS =     -8077.44679112
  atomic energy  EATOM  =     67269.26967399
  Solvation  Ediel_sol  =         0.00000000
  ---------------------------------------------------
  free energy    TOTEN  =      -663.54799827 eV

  energy without entropy =     -663.49549351  energy(sigma->0) =     -663.52174589


--------------------------------------------------------------------------------------------------------




--------------------------------------- Iteration      1(  10)  ---------------------------------------


    POTLOK:  cpu time      3.5824: real time      3.6274
    SETDIJ:  cpu time      0.4378: real time      0.4398
     EDDAV:  cpu time    102.2905: real time    102.8604
       DOS:  cpu time      0.0013: real time      0.0013
    CHARGE:  cpu time      8.1839: real time      8.2333
    MIXING:  cpu time      0.1000: real time      0.1005
    --------------------------------------------
      LOOP:  cpu time    114.5958: real time    115.2628

 eigenvalue-minimisations  : 12246
 total energy-change (2. order) : 0.6418640E+02  (-0.2281101E+02)
 number of electron     810.0000116 magnetization      -0.0000000
 augmentation part      319.1063028 magnetization      -0.0000000

 Broyden mixing:
  rms(total) = 0.71979E+01    rms(broyden)= 0.71975E+01
  rms(prec ) = 0.72678E+01
  weight for this iteration     100.00

 eigenvalues of (default mixing * dielectric matrix)
  average eigenvalue GAMMA=   0.4856
  1.1572  0.4928  0.4928  0.1554  0.1298

 Free energy of the ion-electron system (eV)
  ---------------------------------------------------
  alpha Z        PSCENC =       301.19609653
  Ewald energy   TEWEN  =   1485218.84116291
  -Hartree energ DENC   =  -1545297.72268486
  -exchange      EXHF   =         0.00000000
  -V(xc)+E(xc)   XCENC  =      2428.25114233
  PAW double counting   =     66673.27816189   -69111.46993425
  entropy T*S    EENTRO =        -0.08736201
  eigenvalues    EBANDS =     -8080.91785973
  atomic energy  EATOM  =     67269.26967399
  Solvation  Ediel_sol  =         0.00000000
  ---------------------------------------------------
  free energy    TOTEN  =      -599.36160319 eV

  energy without entropy =     -599.27424118  energy(sigma->0) =     -599.31792219


--------------------------------------------------------------------------------------------------------




--------------------------------------- Iteration      1(  11)  ---------------------------------------


    POTLOK:  cpu time      3.5681: real time      3.6121
    SETDIJ:  cpu time      0.4832: real time      0.4856
     EDDAV:  cpu time     98.4714: real time     99.0133
       DOS:  cpu time      0.0013: real time      0.0013
    CHARGE:  cpu time     11.1128: real time     11.1812
    MIXING:  cpu time      0.1020: real time      0.1025
    --------------------------------------------
      LOOP:  cpu time    113.7388: real time    114.3959

 eigenvalue-minimisations  : 13000
 total energy-change (2. order) :-0.6213402E+01  (-0.8120512E+01)
 number of electron     810.0000118 magnetization      -0.0000000
 augmentation part      318.1723219 magnetization      -0.0000000

 Broyden mixing:
  rms(total) = 0.28077E+01    rms(broyden)= 0.28076E+01
  rms(prec ) = 0.28259E+01
  weight for this iteration     100.00

 eigenvalues of (default mixing * dielectric matrix)
  average eigenvalue GAMMA=   0.6005
  1.5435  0.8281  0.4722  0.4722  0.1571  0.1300

 Free energy of the ion-electron system (eV)
  ---------------------------------------------------
  alpha Z        PSCENC =       301.19609653
  Ewald energy   TEWEN  =   1485218.84116291
  -Hartree energ DENC   =  -1545675.09911836
  -exchange      EXHF   =         0.00000000
  -V(xc)+E(xc)   XCENC  =      2433.71708113
  PAW double counting   =     69033.70397419   -71524.71526735
  entropy T*S    EENTRO =        -0.03381790
  eigenvalues    EBANDS =     -7662.45479005
  atomic energy  EATOM  =     67269.26967399
  Solvation  Ediel_sol  =         0.00000000
  ---------------------------------------------------
  free energy    TOTEN  =      -605.57500491 eV

  energy without entropy =     -605.54118700  energy(sigma->0) =     -605.55809595


--------------------------------------------------------------------------------------------------------




--------------------------------------- Iteration      1(  12)  ---------------------------------------


    POTLOK:  cpu time      3.5555: real time      3.5994
    SETDIJ:  cpu time      0.4923: real time      0.4945
     EDDAV:  cpu time     97.6161: real time     98.1946
       DOS:  cpu time      0.0010: real time      0.0010
    CHARGE:  cpu time      8.3941: real time      8.4479
    MIXING:  cpu time      0.1013: real time      0.1019
    --------------------------------------------
      LOOP:  cpu time    110.1603: real time    110.8393

 eigenvalue-minimisations  : 13078
 total energy-change (2. order) :-0.1331187E+02  (-0.7163615E+01)
 number of electron     810.0000123 magnetization      -0.0000000
 augmentation part      316.7688818 magnetization      -0.0000000

 Broyden mixing:
  rms(total) = 0.19788E+01    rms(broyden)= 0.19786E+01
  rms(prec ) = 0.20007E+01
  weight for this iteration     100.00

 eigenvalues of (default mixing * dielectric matrix)
  average eigenvalue GAMMA=   0.6358
  1.8394  0.6909  0.5954  0.5189  0.5189  0.1573  0.1300

 Free energy of the ion-electron system (eV)
  ---------------------------------------------------
  alpha Z        PSCENC =       301.19609653
  Ewald energy   TEWEN  =   1485218.84116291
  -Hartree energ DENC   =  -1545917.89011110
  -exchange      EXHF   =         0.00000000
  -V(xc)+E(xc)   XCENC  =      2432.08119877
  PAW double counting   =     69870.31702925   -72380.93452228
  entropy T*S    EENTRO =        -0.03643847
  eigenvalues    EBANDS =     -7411.73096541
  atomic energy  EATOM  =     67269.26967399
  Solvation  Ediel_sol  =         0.00000000
  ---------------------------------------------------
  free energy    TOTEN  =      -618.88687580 eV

  energy without entropy =     -618.85043733  energy(sigma->0) =     -618.86865656


--------------------------------------------------------------------------------------------------------




--------------------------------------- Iteration      1(  13)  ---------------------------------------


    POTLOK:  cpu time      3.5622: real time      3.6134
    SETDIJ:  cpu time      0.4760: real time      0.4788
     EDDAV:  cpu time     85.8113: real time     86.2840
       DOS:  cpu time      0.0016: real time      0.0016
    CHARGE:  cpu time      7.9940: real time      8.0423
    MIXING:  cpu time      0.1043: real time      0.1049
    --------------------------------------------
      LOOP:  cpu time     97.9495: real time     98.5250

 eigenvalue-minimisations  : 10634
 total energy-change (2. order) :-0.4731555E+01  (-0.1339462E+01)
 number of electron     810.0000126 magnetization      -0.0000000
 augmentation part      316.4024671 magnetization      -0.0000000

 Broyden mixing:
  rms(total) = 0.15594E+01    rms(broyden)= 0.15594E+01
  rms(prec ) = 0.15717E+01
  weight for this iteration     100.00

 eigenvalues of (default mixing * dielectric matrix)
  average eigenvalue GAMMA=   0.6478
  1.8718  0.7576  0.6244  0.6244  0.5085  0.5085  0.1300  0.1572

 Free energy of the ion-electron system (eV)
  ---------------------------------------------------
  alpha Z        PSCENC =       301.19609653
  Ewald energy   TEWEN  =   1485218.84116291
  -Hartree energ DENC   =  -1546014.07571761
  -exchange      EXHF   =         0.00000000
  -V(xc)+E(xc)   XCENC  =      2433.74602651
  PAW double counting   =     70052.33642747   -72555.14828458
  entropy T*S    EENTRO =        -0.03788626
  eigenvalues    EBANDS =     -7329.74593008
  atomic energy  EATOM  =     67269.26967399
  Solvation  Ediel_sol  =         0.00000000
  ---------------------------------------------------
  free energy    TOTEN  =      -623.61843114 eV

  energy without entropy =     -623.58054487  energy(sigma->0) =     -623.59948801


--------------------------------------------------------------------------------------------------------




--------------------------------------- Iteration      1(  14)  ---------------------------------------


    POTLOK:  cpu time      3.5480: real time      3.5954
    SETDIJ:  cpu time      0.4922: real time      0.4944
     EDDAV:  cpu time     92.6009: real time     94.2721
       DOS:  cpu time      0.0009: real time      0.0009
    CHARGE:  cpu time      7.9626: real time      8.0144
    MIXING:  cpu time      0.1102: real time      0.1108
    --------------------------------------------
      LOOP:  cpu time    104.7148: real time    106.4879

 eigenvalue-minimisations  : 11648
 total energy-change (2. order) :-0.3745380E+01  (-0.8124545E+00)
 number of electron     810.0000126 magnetization      -0.0000000
 augmentation part      316.2264749 magnetization      -0.0000000

 Broyden mixing:
  rms(total) = 0.12212E+01    rms(broyden)= 0.12212E+01
  rms(prec ) = 0.12280E+01
  weight for this iteration     100.00

 eigenvalues of (default mixing * dielectric matrix)
  average eigenvalue GAMMA=   0.7206
  2.1188  0.8612  0.8612  0.6827  0.6827  0.4959  0.4959  0.1300  0.1572

 Free energy of the ion-electron system (eV)
  ---------------------------------------------------
  alpha Z        PSCENC =       301.19609653
  Ewald energy   TEWEN  =   1485218.84116291
  -Hartree energ DENC   =  -1546093.39070072
  -exchange      EXHF   =         0.00000000
  -V(xc)+E(xc)   XCENC  =      2436.22679645
  PAW double counting   =     70185.74982296   -72681.13722464
  entropy T*S    EENTRO =        -0.02704961
  eigenvalues    EBANDS =     -7264.09238877
  atomic energy  EATOM  =     67269.26967399
  Solvation  Ediel_sol  =         0.00000000
  ---------------------------------------------------
  free energy    TOTEN  =      -627.36381089 eV

  energy without entropy =     -627.33676129  energy(sigma->0) =     -627.35028609


--------------------------------------------------------------------------------------------------------




--------------------------------------- Iteration      1(  15)  ---------------------------------------


    POTLOK:  cpu time      3.5470: real time      3.5913
    SETDIJ:  cpu time      0.4949: real time      0.4971
     EDDAV:  cpu time    106.0907: real time    106.6732
       DOS:  cpu time      0.0017: real time      0.0017
    CHARGE:  cpu time      7.9727: real time      8.0222
    MIXING:  cpu time      0.1157: real time      0.1163
[...]
      2.12761      8.51761      0.10000        -0.000000     -0.000000      0.384492
      2.12761     12.77761      0.10000         0.000000      0.000000      0.384492
      6.38761      4.25761      0.10000        -0.000000      0.000000      0.384492
      6.38761      8.51761      0.10000        -0.000000      0.000000      0.384492
      6.38761     12.77761      0.10000         0.000000     -0.000000      0.384492
     10.64761      4.25761      0.10000        -0.000000     -0.000000      0.384492
     10.64761      8.51761      0.10000         0.000000     -0.000000      0.384492
     10.64761     12.77761      0.10000         0.000000     -0.000000      0.384492
      2.12761      4.25761      4.31636         0.000000     -0.000000      0.000318
      2.12761      8.51761      4.31636        -0.000000      0.000000      0.000318
      2.12761     12.77761      4.31636        -0.000000      0.000000      0.000318
      6.38761      4.25761      4.31636        -0.000000     -0.000000      0.000318
      6.38761      8.51761      4.31636        -0.000000      0.000000      0.000318
      6.38761     12.77761      4.31636         0.000000      0.000000      0.000318
     10.64761      4.25761      4.31636        -0.000000     -0.000000      0.000318
     10.64761      8.51761      4.31636         0.000000      0.000000      0.000318
     10.64761     12.77761      4.31636        -0.000000     -0.000000      0.000318
      4.25761      2.12760      0.10000         0.000000     -0.000000      0.384492
      4.25761      6.38760      0.10000        -0.000000      0.000000      0.384492
      4.25761     10.64760      0.10000         0.000000      0.000000      0.384492
      8.51761      2.12760      0.10000         0.000000     -0.000000      0.384492
      8.51761      6.38760      0.10000        -0.000000      0.000000      0.384492
      8.51761     10.64760      0.10000         0.000000      0.000000      0.384492
     12.77761      2.12760      0.10000        -0.000000     -0.000000      0.384492
     12.77761      6.38760      0.10000        -0.000000     -0.000000      0.384492
     12.77761     10.64760      0.10000         0.000000      0.000000      0.384492
      4.25761      2.12760      4.31636         0.000000      0.000000      0.000318
      4.25761      6.38760      4.31636         0.000000      0.000000      0.000318
      4.25761     10.64760      4.31636        -0.000000      0.000000      0.000318
      8.51761      2.12760      4.31636         0.000000     -0.000000      0.000318
      8.51761      6.38760      4.31636        -0.000000     -0.000000      0.000318
      8.51761     10.64760      4.31636         0.000000      0.000000      0.000318
     12.77761      2.12760      4.31636        -0.000000      0.000000      0.000318
     12.77761      6.38760      4.31636         0.000000     -0.000000      0.000318
     12.77761     10.64760      4.31636        -0.000000     -0.000000      0.000318
      2.12761      2.12760      2.23000        -0.000000      0.000000      0.006078
      2.12761      6.38760      2.23000        -0.000000     -0.000000      0.006078
      2.12761     10.64760      2.23000        -0.000000     -0.000000      0.006078
      6.38761      2.12760      2.23000        -0.000000      0.000000      0.006078
      6.38761      6.38760      2.23000        -0.000000      0.000000      0.006078
      6.38761     10.64760      2.23000        -0.000000     -0.000000      0.006078
     10.64761      2.12760      2.23000         0.000000      0.000000      0.006078
     10.64761      6.38760      2.23000         0.000000     -0.000000      0.006078
     10.64761     10.64760      2.23000         0.000000     -0.000000      0.006078
      4.25761      4.25761      0.10000        -0.000000     -0.000000     -0.203908
      4.25761      8.51761      0.10000        -0.000000      0.000000     -0.203908
      4.25761     12.77761      0.10000         0.000000      0.000000     -0.203908
      8.51761      4.25761      0.10000         0.000000      0.000000     -0.203908
      8.51761      8.51761      0.10000         0.000000      0.000000     -0.203908
      8.51761     12.77761      0.10000         0.000000      0.000000     -0.203908
     12.77761      4.25761      0.10000         0.000000      0.000000     -0.203908
     12.77761      8.51761      0.10000        -0.000000      0.000000     -0.203908
     12.77761     12.77761      0.10000         0.000000      0.000000     -0.203908
      4.25761      4.25761      4.36075         0.000000      0.000000      0.000240
      4.25761      8.51761      4.36075         0.000000      0.000000      0.000240
      4.25761     12.77761      4.36075         0.000000      0.000000      0.000240
      8.51761      4.25761      4.36075        -0.000000      0.000000      0.000240
      8.51761      8.51761      4.36075         0.000000      0.000000      0.000240
      8.51761     12.77761      4.36075        -0.000000     -0.000000      0.000240
     12.77761      4.25761      4.36075        -0.000000      0.000000      0.000240
     12.77761      8.51761      4.36075        -0.000000     -0.000000      0.000240
     12.77761     12.77761      4.36075        -0.000000     -0.000000      0.000240
      2.12761      4.25761      2.23000         0.000000     -0.000000     -0.187219
      2.12761      8.51761      2.23000         0.000000      0.000000     -0.187219
      2.12761     12.77761      2.23000         0.000000      0.000000     -0.187219
      6.38761      4.25761      2.23000         0.000000      0.000000     -0.187219
      6.38761      8.51761      2.23000         0.000000     -0.000000     -0.187219
      6.38761     12.77761      2.23000         0.000000      0.000000     -0.187219
     10.64761      4.25761      2.23000        -0.000000      0.000000     -0.187219
     10.64761      8.51761      2.23000        -0.000000      0.000000     -0.187219
     10.64761     12.77761      2.23000        -0.000000     -0.000000     -0.187219
      4.25761      2.12760      2.23000         0.000000     -0.000000     -0.187219
      4.25761      6.38760      2.23000         0.000000     -0.000000     -0.187219
      4.25761     10.64760      2.23000         0.000000     -0.000000     -0.187219
      8.51761      2.12760      2.23000        -0.000000      0.000000     -0.187219
      8.51761      6.38760      2.23000        -0.000000     -0.000000     -0.187219
      8.51761     10.64760      2.23000        -0.000000     -0.000000     -0.187219
     12.77761      2.12760      2.23000        -0.000000     -0.000000     -0.187219
     12.77761      6.38760      2.23000        -0.000000     -0.000000     -0.187219
     12.77761     10.64760      2.23000        -0.000000     -0.000000     -0.187219
      2.12761      2.12760      0.10000        -0.000000     -0.000000     -0.203908
      2.12761      6.38760      0.10000        -0.000000     -0.000000     -0.203908
      2.12761     10.64760      0.10000         0.000000      0.000000     -0.203908
      6.38761      2.12760      0.10000        -0.000000     -0.000000     -0.203908
      6.38761      6.38760      0.10000        -0.000000     -0.000000     -0.203908
      6.38761     10.64760      0.10000        -0.000000     -0.000000     -0.203908
     10.64761      2.12760      0.10000         0.000000     -0.000000     -0.203908
     10.64761      6.38760      0.10000        -0.000000     -0.000000     -0.203908
     10.64761     10.64760      0.10000         0.000000     -0.000000     -0.203908
      2.12761      2.12760      4.36075         0.000000     -0.000000      0.000240
      2.12761      6.38760      4.36075         0.000000     -0.000000      0.000240
      2.12761     10.64760      4.36075         0.000000     -0.000000      0.000240
      6.38761      2.12760      4.36075         0.000000      0.000000      0.000240
      6.38761      6.38760      4.36075         0.000000      0.000000      0.000240
      6.38761     10.64760      4.36075         0.000000      0.000000      0.000240
     10.64761      2.12760      4.36075        -0.000000      0.000000      0.000240
     10.64761      6.38760      4.36075        -0.000000      0.000000      0.000240
     10.64761     10.64760      4.36075        -0.000000      0.000000      0.000240
 -----------------------------------------------------------------------------------
    total drift:                                0.086088      0.006257     -0.055671


--------------------------------------------------------------------------------------------------------



  FREE ENERGIE OF THE ION-ELECTRON SYSTEM (eV)
  ---------------------------------------------------
  free  energy   TOTEN  =      -629.79997894 eV

  energy  without entropy=     -629.79997835  energy(sigma->0) =     -629.79997864
 


--------------------------------------------------------------------------------------------------------


    POTLOK:  cpu time      4.0538: real time      4.0771


--------------------------------------------------------------------------------------------------------


     LOOP+:  cpu time   5525.0890: real time   5564.7753
    4ORBIT:  cpu time      0.0000: real time      0.0000



 total charge

# of ion       s       p       d       tot
------------------------------------------
    1        0.308   0.373   7.145   7.826
    2        0.308   0.373   7.145   7.826
    3        0.308   0.373   7.145   7.826
    4        0.308   0.373   7.145   7.826
    5        0.308   0.373   7.145   7.826
    6        0.308   0.373   7.145   7.826
    7        0.308   0.373   7.145   7.826
    8        0.308   0.373   7.145   7.826
    9        0.308   0.373   7.145   7.826
   10        0.296   0.320   7.083   7.698
   11        0.296   0.320   7.083   7.698
   12        0.296   0.320   7.083   7.698
   13        0.296   0.320   7.083   7.698
   14        0.296   0.320   7.083   7.698
   15        0.296   0.320   7.083   7.698
   16        0.296   0.320   7.083   7.698
   17        0.296   0.320   7.083   7.698
   18        0.296   0.320   7.083   7.698
   19        0.298   0.328   7.091   7.717
   20        0.298   0.328   7.091   7.717
   21        0.298   0.328   7.091   7.717
   22        0.298   0.328   7.091   7.717
   23        0.298   0.328   7.091   7.717
   24        0.298   0.328   7.091   7.717
   25        0.298   0.328   7.091   7.717
   26        0.298   0.328   7.091   7.717
   27        0.298   0.328   7.091   7.717
   28        0.296   0.320   7.083   7.698
   29        0.296   0.320   7.083   7.698
   30        0.296   0.320   7.083   7.698
   31        0.296   0.320   7.083   7.698
   32        0.296   0.320   7.083   7.698
   33        0.296   0.320   7.083   7.698
   34        0.296   0.320   7.083   7.698
   35        0.296   0.320   7.083   7.698
   36        0.296   0.320   7.083   7.698
   37        0.298   0.328   7.091   7.717
   38        0.298   0.328   7.091   7.717
   39        0.298   0.328   7.091   7.717
   40        0.298   0.328   7.091   7.717
   41        0.298   0.328   7.091   7.717
   42        0.298   0.328   7.091   7.717
   43        0.298   0.328   7.091   7.717
   44        0.298   0.328   7.091   7.717
   45        0.298   0.328   7.091   7.717
   46        0.308   0.373   7.145   7.826
   47        0.308   0.373   7.145   7.826
   48        0.308   0.373   7.145   7.826
   49        0.308   0.373   7.145   7.826
   50        0.308   0.373   7.145   7.826
   51        0.308   0.373   7.145   7.826
   52        0.308   0.373   7.145   7.826
   53        0.308   0.373   7.145   7.826
   54        0.308   0.373   7.145   7.826
   55        1.549   3.415   0.000   4.964
   56        1.549   3.415   0.000   4.964
   57        1.549   3.415   0.000   4.964
   58        1.549   3.415   0.000   4.964
   59        1.549   3.415   0.000   4.964
   60        1.549   3.415   0.000   4.964
   61        1.549   3.415   0.000   4.964
   62        1.549   3.415   0.000   4.964
   63        1.549   3.415   0.000   4.964
   64        1.549   3.415   0.000   4.964
   65        1.549   3.415   0.000   4.964
   66        1.549   3.415   0.000   4.964
   67        1.549   3.415   0.000   4.964
   68        1.549   3.415   0.000   4.964
   69        1.549   3.415   0.000   4.964
   70        1.549   3.415   0.000   4.964
   71        1.549   3.415   0.000   4.964
   72        1.549   3.415   0.000   4.964
   73        1.548   3.464   0.000   5.012
   74        1.548   3.464   0.000   5.012
   75        1.548   3.464   0.000   5.012
   76        1.548   3.464   0.000   5.012
   77        1.548   3.464   0.000   5.012
   78        1.548   3.464   0.000   5.012
   79        1.548   3.464   0.000   5.012
   80        1.548   3.464   0.000   5.012
   81        1.548   3.464   0.000   5.012
   82        1.548   3.464   0.000   5.012
   83        1.548   3.464   0.000   5.012
   84        1.548   3.464   0.000   5.012
   85        1.548   3.464   0.000   5.012
   86        1.548   3.464   0.000   5.012
   87        1.548   3.464   0.000   5.012
   88        1.548   3.464   0.000   5.012
   89        1.548   3.464   0.000   5.012
   90        1.548   3.464   0.000   5.012
   91        1.549   3.415   0.000   4.964
   92        1.549   3.415   0.000   4.964
   93        1.549   3.415   0.000   4.964
   94        1.549   3.415   0.000   4.964
   95        1.549   3.415   0.000   4.964
   96        1.549   3.415   0.000   4.964
   97        1.549   3.415   0.000   4.964
   98        1.549   3.415   0.000   4.964
   99        1.549   3.415   0.000   4.964
  100        1.549   3.415   0.000   4.964
  101        1.549   3.415   0.000   4.964
  102        1.549   3.415   0.000   4.964
  103        1.549   3.415   0.000   4.964
  104        1.549   3.415   0.000   4.964
  105        1.549   3.415   0.000   4.964
  106        1.549   3.415   0.000   4.964
  107        1.549   3.415   0.000   4.964
  108        1.549   3.415   0.000   4.964
--------------------------------------------------
tot         99.841 203.683 383.732 687.256



 magnetization (x)

# of ion       s       p       d       tot
------------------------------------------
    1        0.022   0.019   2.662   2.703
    2        0.022   0.019   2.662   2.703
    3        0.022   0.019   2.662   2.703
    4        0.022   0.019   2.662   2.703
    5        0.022   0.019   2.662   2.703
    6        0.022   0.019   2.662   2.703
    7        0.022   0.019   2.662   2.703
    8        0.022   0.019   2.662   2.703
    9        0.022   0.019   2.662   2.703
   10        0.033   0.026   2.672   2.730
   11        0.033   0.026   2.672   2.730
   12        0.033   0.026   2.672   2.730
   13        0.033   0.026   2.672   2.730
   14        0.033   0.026   2.672   2.730
   15        0.033   0.026   2.672   2.730
   16        0.033   0.026   2.672   2.730
   17        0.033   0.026   2.672   2.730
   18        0.033   0.026   2.672   2.730
   19        0.031   0.027   2.670   2.728
   20        0.031   0.027   2.670   2.728
   21        0.031   0.027   2.670   2.728
   22        0.031   0.027   2.670   2.728
   23        0.031   0.027   2.670   2.728
   24        0.031   0.027   2.670   2.728
   25        0.031   0.027   2.670   2.728
   26        0.031   0.027   2.670   2.728
   27        0.031   0.027   2.670   2.728
   28       -0.033  -0.026  -2.672  -2.730
   29       -0.033  -0.026  -2.672  -2.730
   30       -0.033  -0.026  -2.672  -2.730
   31       -0.033  -0.026  -2.672  -2.730
   32       -0.033  -0.026  -2.672  -2.730
   33       -0.033  -0.026  -2.672  -2.730
   34       -0.033  -0.026  -2.672  -2.730
   35       -0.033  -0.026  -2.672  -2.730
   36       -0.033  -0.026  -2.672  -2.730
   37       -0.031  -0.027  -2.670  -2.728
   38       -0.031  -0.027  -2.670  -2.728
   39       -0.031  -0.027  -2.670  -2.728
   40       -0.031  -0.027  -2.670  -2.728
   41       -0.031  -0.027  -2.670  -2.728
   42       -0.031  -0.027  -2.670  -2.728
   43       -0.031  -0.027  -2.670  -2.728
   44       -0.031  -0.027  -2.670  -2.728
   45       -0.031  -0.027  -2.670  -2.728
   46       -0.022  -0.019  -2.662  -2.703
   47       -0.022  -0.019  -2.662  -2.703
   48       -0.022  -0.019  -2.662  -2.703
   49       -0.022  -0.019  -2.662  -2.703
   50       -0.022  -0.019  -2.662  -2.703
   51       -0.022  -0.019  -2.662  -2.703
   52       -0.022  -0.019  -2.662  -2.703
   53       -0.022  -0.019  -2.662  -2.703
   54       -0.022  -0.019  -2.662  -2.703
   55        0.005   0.093   0.000   0.098
   56        0.005   0.093   0.000   0.098
   57        0.005   0.093   0.000   0.098
   58        0.005   0.093   0.000   0.098
   59        0.005   0.093   0.000   0.098
   60        0.005   0.093   0.000   0.098
   61        0.005   0.093   0.000   0.098
   62        0.005   0.093   0.000   0.098
   63        0.005   0.093   0.000   0.098
   64        0.005   0.097   0.000   0.102
   65        0.005   0.097   0.000   0.102
   66        0.005   0.097   0.000   0.102
   67        0.005   0.097   0.000   0.102
   68        0.005   0.097   0.000   0.102
   69        0.005   0.097   0.000   0.102
   70        0.005   0.097   0.000   0.102
   71        0.005   0.097   0.000   0.102
   72        0.005   0.097   0.000   0.102
   73        0.011   0.135   0.000   0.146
   74        0.011   0.135   0.000   0.146
   75        0.011   0.135   0.000   0.146
   76        0.011   0.135   0.000   0.146
   77        0.011   0.135   0.000   0.146
   78        0.011   0.135   0.000   0.146
   79        0.011   0.135   0.000   0.146
   80        0.011   0.135   0.000   0.146
   81        0.011   0.135   0.000   0.146
   82       -0.011  -0.135   0.000  -0.146
   83       -0.011  -0.135   0.000  -0.146
   84       -0.011  -0.135   0.000  -0.146
   85       -0.011  -0.135   0.000  -0.146
   86       -0.011  -0.135   0.000  -0.146
   87       -0.011  -0.135   0.000  -0.146
   88       -0.011  -0.135   0.000  -0.146
   89       -0.011  -0.135   0.000  -0.146
   90       -0.011  -0.135   0.000  -0.146
   91       -0.005  -0.093   0.000  -0.098
   92       -0.005  -0.093   0.000  -0.098
   93       -0.005  -0.093   0.000  -0.098
   94       -0.005  -0.093   0.000  -0.098
   95       -0.005  -0.093   0.000  -0.098
   96       -0.005  -0.093   0.000  -0.098
   97       -0.005  -0.093   0.000  -0.098
   98       -0.005  -0.093   0.000  -0.098
   99       -0.005  -0.093   0.000  -0.098
  100       -0.005  -0.097   0.000  -0.102
  101       -0.005  -0.097   0.000  -0.102
  102       -0.005  -0.097   0.000  -0.102
  103       -0.005  -0.097   0.000  -0.102
  104       -0.005  -0.097   0.000  -0.102
  105       -0.005  -0.097   0.000  -0.102
  106       -0.005  -0.097   0.000  -0.102
  107       -0.005  -0.097   0.000  -0.102
  108       -0.005  -0.097   0.000  -0.102
--------------------------------------------------
tot         -0.000  -0.000   0.000   0.000
 

 total amount of memory used by VASP MPI-rank0  1648083. kBytes
=======================================================================

   base      :      30000. kBytes
   nonlr-proj:      73207. kBytes
   fftplans  :      87631. kBytes
   grid      :     622702. kBytes
   one-center:       3359. kBytes
   wavefun   :     831184. kBytes
 
  
  
 General timing and accounting informations for this job:
 ========================================================
  
                  Total CPU time used (sec):     5622.266
                            User time (sec):     5599.710
                          System time (sec):       22.556
                         Elapsed time (sec):     5663.650
  
                   Maximum memory used (kb):     2352212.
                   Average memory used (kb):          N/A
  
                          Minor page faults:      1055993
                          Major page faults:          694
                 Voluntary context switches:         5430
