 vasp.6.4.3 19Mar24 (build Jul 11 2024 14:45:55) complex                        
  
 executed on             LinuxIFC date 2024.10.20  03:17:56
 running  104 mpi-ranks, with    1 threads/rank, on    1 nodes
 distrk:  each k-point on   26 cores,    4 groups
 distr:  one band on NCORE=   1 cores,   26 groups


--------------------------------------------------------------------------------------------------------


 INCAR:
   SYSTEM = CoO Bulk Cubic Fm3m
   GGA = PE
   ISTART = 0
   ICHARG = 2
   PREC = Accurate
   LASPH = .TRUE.
   ISMEAR = 0
   SIGMA = 0.03
   ENCUT = 600
   EDIFF = 1E-7
   NELM = 300
   LREAL = .FALSE.
   LMAXMIX = 4
   ISPIN = 2
   MAGMOM = 3*5 3*-5 6*0.0
   ALGO = Normal
   NELMIN = 5
   ISIF = 2
   NSW = 0
   IBRION = -1
   EDIFFG = -0.001
   LDAU = .TRUE.
   LDAUTYPE = 2
   LDAUL = 2 -1
   LDAUU = 3.0 0
   LDAUJ = 0 0
   LDAUPRINT = 1
   LORBIT = 11
   IVDW = 12
   NCORE = 8
   KPAR = 4
   LVTOT = .TRUE.
   WRT_POTENTIAL = total
   LVHAR = .TRUE.

 POTCAR:    PAW_PBE Co 02Aug2007                  
 POTCAR:    PAW_PBE O 08Apr2002                   
 POTCAR:    PAW_PBE Co 02Aug2007                  
   VRHFIN =Co: d8 s1                                                                                
   LEXCH  = PE                                                                                      
   EATOM  =   813.3670 eV,   59.7808 Ry                                                             
                                                                                                    
   TITEL  = PAW_PBE Co 02Aug2007                                                                    
   LULTRA =        F    use ultrasoft PP ?                                                          
   IUNSCR =        1    unscreen: 0-lin 1-nonlin 2-no                                               
   RPACOR =    2.000    partial core radius                                                         
   POMASS =   58.933; ZVAL   =    9.000    mass and valenz                                          
   RCORE  =    2.300    outmost cutoff radius                                                       
   RWIGS  =    2.460; RWIGS  =    1.302    wigner-seitz radius (au A)                               
   ENMAX  =  267.968; ENMIN  =  200.976 eV                                                          
   RCLOC  =    1.203    cutoff for local pot                                                        
   LCOR   =        T    correct aug charges                                                         
   LPAW   =        T    paw PP                                                                      
   EAUG   =  477.818                                                                                
   DEXC   =    0.000                                                                                
   RMAX   =    2.360    core radius for proj-oper                                                   
   RAUG   =    1.300    factor for augmentation sphere                                              
   RDEP   =    2.393    radius for radial grids                                                     
   RDEPT  =    1.864    core radius for aug-charge                                                  
                                                                                                    
   Atomic configuration                                                                             
    9 entries                                                                                       
     n  l   j            E        occ.                                                              
     1  0  0.50     -7587.6674   2.0000                                                             
     2  0  0.50      -893.6084   2.0000                                                             
     2  1  1.50      -764.5805   6.0000                                                             
     3  0  0.50       -97.5973   2.0000                                                             
     3  1  1.50       -60.9648   6.0000                                                             
     3  2  2.50        -4.2382   8.0000                                                             
     4  0  0.50        -4.3746   1.0000                                                             
     4  1  1.50        -4.0817   0.0000                                                             
     4  3  2.50        -1.3606   0.0000                                                             
   Description                                                                                      
     l       E           TYP  RCUT    TYP  RCUT                                                     
     2     -4.2382362     23  2.300                                                                 
     2     -5.5988188     23  2.300                                                                 
     0     -4.3745797     23  2.300                                                                 
     0      5.7660125     23  2.300                                                                 
     1     -2.7211652     23  2.300                                                                 
     1     16.9860234     23  2.300                                                                 
  local pseudopotential read in
  partial core-charges read in
  partial kinetic energy density read in
  atomic valenz-charges read in
  non local Contribution for L=           2  read in
    real space projection operators read in
  non local Contribution for L=           2  read in
    real space projection operators read in
  non local Contribution for L=           0  read in
    real space projection operators read in
  non local Contribution for L=           0  read in
    real space projection operators read in
  non local Contribution for L=           1  read in
    real space projection operators read in
  non local Contribution for L=           1  read in
    real space projection operators read in
    PAW grid and wavefunctions read in
 
   number of l-projection  operators is LMAX  =           6
   number of lm-projection operators is LMMAX =          18
 
 POTCAR:    PAW_PBE O 08Apr2002                   
   VRHFIN =O: s2p4                                                                                  
   LEXCH  = PE                                                                                      
   EATOM  =   432.3788 eV,   31.7789 Ry                                                             
                                                                                                    
   TITEL  = PAW_PBE O 08Apr2002                                                                     
   LULTRA =        F    use ultrasoft PP ?                                                          
   IUNSCR =        1    unscreen: 0-lin 1-nonlin 2-no                                               
   RPACOR =    1.200    partial core radius                                                         
   POMASS =   16.000; ZVAL   =    6.000    mass and valenz                                          
   RCORE  =    1.520    outmost cutoff radius                                                       
   RWIGS  =    1.550; RWIGS  =    0.820    wigner-seitz radius (au A)                               
   ENMAX  =  400.000; ENMIN  =  300.000 eV                                                          
   ICORE  =        2    local potential                                                             
   LCOR   =        T    correct aug charges                                                         
   LPAW   =        T    paw PP                                                                      
   EAUG   =  605.392                                                                                
   DEXC   =    0.000                                                                                
   RMAX   =    1.553    core radius for proj-oper                                                   
   RAUG   =    1.300    factor for augmentation sphere                                              
   RDEP   =    1.550    radius for radial grids                                                     
   RDEPT  =    1.329    core radius for aug-charge                                                  
                                                                                                    
   Atomic configuration                                                                             
    4 entries                                                                                       
     n  l   j            E        occ.                                                              
     1  0  0.50      -514.6923   2.0000                                                             
     2  0  0.50       -23.9615   2.0000                                                             
     2  1  0.50        -9.0305   4.0000                                                             
     3  2  1.50        -9.5241   0.0000                                                             
   Description                                                                                      
     l       E           TYP  RCUT    TYP  RCUT                                                     
     0    -23.9615318     23  1.200                                                                 
     0     -9.5240782     23  1.200                                                                 
     1     -9.0304911     23  1.520                                                                 
     1      8.1634956     23  1.520                                                                 
     2     -9.5240782      7  1.500                                                                 
  local pseudopotential read in
  partial core-charges read in
  partial kinetic energy density read in
  kinetic energy density of atom read in
  atomic valenz-charges read in
  non local Contribution for L=           0  read in
    real space projection operators read in
  non local Contribution for L=           0  read in
    real space projection operators read in
  non local Contribution for L=           1  read in
    real space projection operators read in
  non local Contribution for L=           1  read in
    real space projection operators read in
    PAW grid and wavefunctions read in
 
   number of l-projection  operators is LMAX  =           4
   number of lm-projection operators is LMMAX =           8
 
  PAW_PBE Co 02Aug2007                  :
 energy of atom  1       EATOM= -813.3670
 kinetic energy error for atom=    0.0018 (will be added to EATOM!!)
  PAW_PBE O 08Apr2002                   :
 energy of atom  2       EATOM= -432.3788
 kinetic energy error for atom=    0.0168 (will be added to EATOM!!)
 
 
 POSCAR: Generated by VASPKIT code
  positions in direct lattice
  velocities in cartesian coordinates
  No initial velocities read in
 IVDW         = 12
 VDW_S6       =    1.0000
 VDW_S8       =    0.7875
 VDW_A1       =    0.4289
 VDW_A2       =    4.4407
 VDW_RADIUS   =   50.2022 A
 VDW_CNRADIUS =   21.1671 A


 exchange-correlation table for PE
   RHO(1)=    0.500       N(1)  =     2000
   RHO(2)=  100.500       N(2)  =     4000
 


--------------------------------------------------------------------------------------------------------


 ion  position               nearest neighbor table
   1  0.999  0.999  0.500-  10 2.13   8 2.13   7 2.13   8 2.13  10 2.13   5 3.01   4 3.01   5 3.01
                             3 3.01   3 3.01   5 3.01   4 3.01   5 3.01
   2  0.999  0.999  0.673-   7 2.08  11 2.13   9 2.13   9 2.13  11 2.13   4 2.98   3 2.98   3 2.98
                             4 2.98   6 3.01   6 3.01   6 3.01   6 3.01
   3  0.499  0.999  0.588-  12 2.13   7 2.13   8 2.13   7 2.13  12 2.13   9 2.13   6 2.98   2 2.98
                             2 2.98   6 2.98   4 3.01   5 3.01   4 3.01   1 3.01   1 3.01   4 3.01
   4  0.999  0.499  0.588-   7 2.13  12 2.13  10 2.13  12 2.13   7 2.13  11 2.13   2 2.98   6 2.98
                             6 2.98   2 2.98   3 3.01   1 3.01   3 3.01   5 3.01   5 3.01   3 3.01
   5  0.499  0.499  0.500-   8 2.13  10 2.13  12 2.13  10 2.13   8 2.13   1 3.01   3 3.01   1 3.01
                             4 3.01   4 3.01   1 3.01   3 3.01   1 3.01
   6  0.499  0.499  0.673-  12 2.08   9 2.13  11 2.13  11 2.13   9 2.13   3 2.98   4 2.98   4 2.98
                             3 2.98   2 3.01   2 3.01   2 3.01   2 3.01
   7  0.999  0.999  0.588-   2 2.08   4 2.13   3 2.13   1 2.13   3 2.13   4 2.13
   8  0.499  0.999  0.500-   5 2.13   1 2.13   3 2.13   1 2.13   5 2.13
   9  0.499  0.999  0.675-   6 2.13   2 2.13   2 2.13   6 2.13   3 2.13
  10  0.999  0.499  0.500-   1 2.13   5 2.13   4 2.13   5 2.13   1 2.13
  11  0.999  0.499  0.675-   2 2.13   6 2.13   6 2.13   2 2.13   4 2.13
  12  0.499  0.499  0.588-   6 2.08   3 2.13   4 2.13   5 2.13   4 2.13   3 2.13
 
  LATTYP: Found a simple tetragonal cell.
 ALAT       =     4.2600000000
 C/A-ratio  =     5.6971833246
  
  Lattice vectors:
  
 A1 = (   4.2600000000,   0.0000000000,   0.0000000000)
 A2 = (   0.0000000000,   4.2600000000,   0.0000000000)
 A3 = (   0.0000000000,   0.0000000000,  24.2700009629)


Analysis of symmetry for initial positions (statically):
=====================================================================
 Subroutine PRICEL returns following result:
 
  LATTYP: Found a simple tetragonal cell.
 ALAT       =     3.0122768553
 C/A-ratio  =     8.0570286628
  
  Lattice vectors:
  
 A1 = (   2.1299990371,  -2.1300037452,   0.0000000000)
 A2 = (   2.1299990371,   2.1299962548,   0.0000000000)
 A3 = (   0.0000000000,   0.0000000000,  24.2700009629)
 
   2 primitive cells build up your supercell.
 

 Routine SETGRP: Setting up the symmetry group for a 
 simple tetragonal supercell.


 Subroutine GETGRP returns: Found  8 space group operations
 (whereof  2 operations were pure point group operations)
 out of a pool of 16 trial point group operations.


The static configuration has the point symmetry C_1h.
 The point group associated with its full space group is C_4v.


Analysis of symmetry for dynamics (positions and initial velocities):
=====================================================================
 Subroutine PRICEL returns following result:
 
  LATTYP: Found a simple tetragonal cell.
 ALAT       =     3.0122768553
 C/A-ratio  =     8.0570286628
  
  Lattice vectors:
  
 A1 = (   2.1299990371,  -2.1300037452,   0.0000000000)
 A2 = (   2.1299990371,   2.1299962548,   0.0000000000)
 A3 = (   0.0000000000,   0.0000000000,  24.2700009629)
 
   2 primitive cells build up your supercell.
 

 Routine SETGRP: Setting up the symmetry group for a 
 simple tetragonal supercell.


 Subroutine GETGRP returns: Found  8 space group operations
 (whereof  2 operations were pure point group operations)
 out of a pool of 16 trial point group operations.


The dynamic configuration has the point symmetry C_1h.
 The point group associated with its full space group is C_4v.


Analysis of constrained symmetry for selective dynamics:
=====================================================================
 Subroutine PRICEL returns following result:
 
  LATTYP: Found a simple tetragonal cell.
 ALAT       =     3.0122768553
 C/A-ratio  =     8.0570286628
  
  Lattice vectors:
  
 A1 = (   2.1299990371,  -2.1300037452,   0.0000000000)
 A2 = (   2.1299990371,   2.1299962548,   0.0000000000)
 A3 = (   0.0000000000,   0.0000000000,  24.2700009629)
 
   2 primitive cells build up your supercell.
 

 Routine SETGRP: Setting up the symmetry group for a 
 simple tetragonal supercell.


 Subroutine GETGRP returns: Found  8 space group operations
 (whereof  2 operations were pure point group operations)
 out of a pool of 16 trial point group operations.


The constrained configuration has the point symmetry C_1h.
 The point group associated with its full space group is C_4v.


Analysis of structural, dynamic, and magnetic symmetry:
=====================================================================
 Subroutine PRICEL returns following result:
 
  LATTYP: Found a simple tetragonal cell.
 ALAT       =     3.0122768553
 C/A-ratio  =     8.0570286628
  
  Lattice vectors:
  
 A1 = (   2.1299990371,  -2.1300037452,   0.0000000000)
 A2 = (   2.1299990371,   2.1299962548,   0.0000000000)
 A3 = (   0.0000000000,   0.0000000000,  24.2700009629)
 
   2 primitive cells build up your supercell.
 

 Routine SETGRP: Setting up the symmetry group for a 
 simple tetragonal supercell.


 Subroutine GETGRP returns: Found  4 space group operations
 (whereof  1 operations were pure point group operations)
 out of a pool of 16 trial point group operations.


The overall configuration has the point symmetry C_1 .
 The point group associated with its full space group is C_2v.


 Subroutine INISYM returns: Found  4 space group operations
 (whereof  1 operations are pure point group operations),
 and found     2 'primitive' translations


----------------------------------------------------------------------------------------

                                     Primitive cell                                     

  volume of cell :     220.2210

  direct lattice vectors                    reciprocal lattice vectors
     2.129999037 -2.130003745  0.000000000     0.234741477 -0.234741784  0.000000000
     2.129999037  2.129996255  0.000000000     0.234742303  0.234741784 -0.000000000
     0.000000000  0.000000000 24.270000963     0.000000000  0.000000000  0.041203130

  length of vectors
     3.012276855  3.012271559 24.270000963     0.331974798  0.331975382  0.041203130

  position of ions in fractional coordinates (direct lattice)
     0.999998368  0.998878807  0.499794004
     0.999998368  0.998878807  0.673392771
     0.499999247  0.498877928  0.587556631
     0.999997747  0.998878941  0.587556674
     0.499999381  0.498877307  0.499793961
     0.499999381  0.498877307  0.675408893

  ion indices of the primitive-cell ions
   primitive index   ion index
                 1           1
                 2           2
                 3           4
                 4           7
                 5          10
                 6          11

----------------------------------------------------------------------------------------

 
 
 KPOINTS: KPOINTS                                 

Automatic generation of k-mesh.
 Grid dimensions read from file:
 generate k-points for:    6    6    1

 Generating k-lattice:

  Cartesian coordinates                     Fractional coordinates (reciprocal lattice)
     0.039123631 -0.000000000 -0.000000000     0.166666667  0.000000000 -0.000000000
     0.000000000  0.039123631 -0.000000000     0.000000000  0.166666667 -0.000000000
     0.000000000  0.000000000  0.041203130     0.000000000  0.000000000  1.000000000

  Length of vectors
     0.039123631  0.039123631  0.041203130

  Shift w.r.t. Gamma in fractional coordinates (k-lattice)
     0.000000000  0.000000000  0.000000000

 
 Subroutine IBZKPT returns following result:
 ===========================================
 
 Found     16 irreducible k-points:
 
 Following reciprocal coordinates:
            Coordinates               Weight
  0.000000  0.000000  0.000000      1.000000
  0.166667 -0.000000 -0.000000      2.000000
  0.000000  0.166667  0.000000      2.000000
  0.333333 -0.000000 -0.000000      2.000000
  0.000000  0.333333  0.000000      2.000000
  0.500000 -0.000000  0.000000      1.000000
  0.000000  0.500000  0.000000      1.000000
  0.166667  0.166667  0.000000      4.000000
  0.333333  0.166667  0.000000      4.000000
 -0.166667  0.333333  0.000000      4.000000
  0.500000  0.166667 -0.000000      2.000000
 -0.166667  0.500000  0.000000      2.000000
  0.333333  0.333333  0.000000      4.000000
  0.500000  0.333333 -0.000000      2.000000
 -0.333333  0.500000  0.000000      2.000000
  0.500000  0.500000  0.000000      1.000000
 
 Following cartesian coordinates:
            Coordinates               Weight
  0.000000  0.000000  0.000000      1.000000
  0.039124 -0.000000 -0.000000      2.000000
  0.000000  0.039124 -0.000000      2.000000
  0.078247 -0.000000 -0.000000      2.000000
  0.000000  0.078247 -0.000000      2.000000
  0.117371 -0.000000 -0.000000      1.000000
  0.000000  0.117371 -0.000000      1.000000
  0.039124  0.039124 -0.000000      4.000000
  0.078247  0.039124 -0.000000      4.000000
 -0.039124  0.078247 -0.000000      4.000000
  0.117371  0.039124 -0.000000      2.000000
 -0.039124  0.117371 -0.000000      2.000000
  0.078247  0.078247 -0.000000      4.000000
  0.117371  0.078247 -0.000000      2.000000
 -0.078247  0.117371 -0.000000      2.000000
  0.117371  0.117371 -0.000000      1.000000
 


--------------------------------------------------------------------------------------------------------




 Dimension of arrays:
   k-points           NKPTS =     16   k-points in BZ     NKDIM =     16   number of bands    NBANDS=     78
   number of dos      NEDOS =    301   number of ions     NIONS =     12
   non local maximal  LDIM  =      6   non local SUM 2l+1 LMDIM =     18
   total plane-waves  NPLWV = 254016
   max r-space proj   IRMAX =      1   max aug-charges    IRDMAX=  22942
   dimension x,y,z NGX =    36 NGY =   36 NGZ =  196
   dimension x,y,z NGXF=    72 NGYF=   72 NGZF=  392
   support grid    NGXF=    72 NGYF=   72 NGZF=  392
   ions per type =               6   6
   NGX,Y,Z   is equivalent  to a cutoff of  14.05, 14.05, 13.43 a.u.
   NGXF,Y,Z  is equivalent  to a cutoff of  28.10, 28.10, 26.85 a.u.

 SYSTEM =  CoO Bulk Cubic Fm3m                     
 POSCAR =  Generated by VASPKIT code               

 Startparameter for this run:
   NWRITE =      2    write-flag & timer
   PREC   = accura    normal or accurate (medium, high low for compatibility)
   ISTART =      0    job   : 0-new  1-cont  2-samecut
   ICHARG =      2    charge: 1-file 2-atom 10-const
   ISPIN  =      2    spin polarized calculation?
   LNONCOLLINEAR =      F non collinear calculations
   LSORBIT =      F    spin-orbit coupling
   INIWAV =      1    electr: 0-lowe 1-rand  2-diag
   LASPH  =      T    aspherical Exc in radial PAW
 Electronic Relaxation 1
   ENCUT  =  600.0 eV  44.10 Ry    6.64 a.u.   8.51  8.51 48.47*2*pi/ulx,y,z
   ENINI  =  600.0     initial cutoff
   ENAUG  =  605.4 eV  augmentation charge cutoff
   NELM   =    300;   NELMIN=  5; NELMDL= -5     # of ELM steps 
   EDIFF  = 0.1E-06   stopping-criterion for ELM
   LREAL  =      F    real-space projection
   NLSPLINE    = F    spline interpolate recip. space projectors
   LCOMPAT=      F    compatible to vasp.4.4
   GGA_COMPAT  = T    GGA compatible to vasp.4.4-vasp.4.6
   LMAXPAW     = -100 max onsite density
   LMAXMIX     =    4 max onsite mixed and CHGCAR
   VOSKOWN=      0    Vosko Wilk Nusair interpolation
   ROPT   =    0.00000   0.00000
 Ionic relaxation
   EDIFFG = -.1E-02   stopping-criterion for IOM
   NSW    =      0    number of steps for IOM
   NBLOCK =      1;   KBLOCK =      1    inner block; outer block 
   IBRION =     -1    ionic relax: 0-MD 1-quasi-New 2-CG
   NFREE  =      0    steps in history (QN), initial steepest desc. (CG)
   ISIF   =      2    stress and relaxation
   IWAVPR =     10    prediction:  0-non 1-charg 2-wave 3-comb
   ISYM   =      2    0-nonsym 1-usesym 2-fastsym
   LCORR  =      T    Harris-Foulkes like correction to forces

   POTIM  = 0.5000    time-step for ionic-motion
   TEIN   =    0.0    initial temperature
   TEBEG  =    0.0;   TEEND  =   0.0 temperature during run
   SMASS  =  -3.00    Nose mass-parameter (am)
   estimated Nose-frequenzy (Omega)   =  0.10E-29 period in steps = 0.13E+47 mass=  -0.415E-27a.u.
   SCALEE = 1.0000    scale energy and forces
   NPACO  =    256;   APACO  = 10.0  distance and # of slots for P.C.
   PSTRESS=    0.0 pullay stress

  Mass of Ions in am
   POMASS =  58.93 16.00
  Ionic Valenz
   ZVAL   =   9.00  6.00
  Atomic Wigner-Seitz radii
   RWIGS  =  -1.00 -1.00
  virtual crystal weights 
   VCA    =   1.00  1.00
   NELECT =      90.0000    total number of electrons
   NUPDOWN=      -1.0000    fix difference up-down

 DOS related values:
   EMIN   =  10.00;   EMAX   =-10.00  energy-range for DOS
   EFERMI =   0.00;   METHOD = LEGACY      
   ISMEAR =     0;   SIGMA  =   0.03  broadening in eV -4-tet -1-fermi 0-gaus

 Electronic relaxation 2 (details)
   IALGO  =     38    algorithm
   LDIAG  =      T    sub-space diagonalisation (order eigenvalues)
   LSUBROT=      F    optimize rotation matrix (better conditioning)
   TURBO    =      0    0=normal 1=particle mesh
   IRESTART =      0    0=no restart 2=restart with 2 vectors
   NREBOOT  =      0    no. of reboots
   NMIN     =      0    reboot dimension
   EREF     =   0.00    reference energy to select bands
   IMIX   =      4    mixing-type and parameters
     AMIX     =   0.40;   BMIX     =  1.00
     AMIX_MAG =   1.60;   BMIX_MAG =  1.00
     AMIN     =   0.10
     WC   =   100.;   INIMIX=   1;  MIXPRE=   1;  MAXMIX= -45

 Intra band minimization:
   WEIMIN = 0.0000     energy-eigenvalue tresh-hold
   EBREAK =  0.32E-09  absolut break condition
   DEPER  =   0.30     relativ break condition  

   TIME   =   0.40     timestep for ELM

  volume/ion in A,a.u.               =      36.70       247.69
  Fermi-wavevector in a.u.,A,eV,Ry     =   0.964257  1.822181 12.650575  0.929791
  Thomas-Fermi vector in A             =   2.093872
 
 Write flags
   LWAVE        =      T    write WAVECAR
   LDOWNSAMPLE  =      F    k-point downsampling of WAVECAR
   LCHARG       =      T    write CHGCAR
   LVTOT        =      F    write LOCPOT, total local potential
   LVHAR        =      T    write LOCPOT, Hartree potential only
   WRT_POTENTIAL= total hartree ionic  ! write potential to hdf5 file
   LELF         =      F    write electronic localiz. function (ELF)
   LORBIT       =     11    0 simple, 1 ext, 2 COOP (PROOUT), +10 PAW based schemes


 Dipole corrections
   LMONO      =      F    monopole corrections only (constant potential shift)
   LDIPOL     =      F    correct potential (dipole corrections)
   IDIPOL     =      0    1-x, 2-y, 3-z, 4-all directions 
   EPSILON    =  1.0000000 bulk dielectric constant
   LVACPOTAV  =      F  vacuum potentials using an averaging scheme for the charge density
   VACPOTFLAT =  0.1000000 required flatness to determine vacuum potential
 LDA+U is selected, type is set to LDAUTYPE =  2
   angular momentum for each species LDAUL =     2   -1
   U (eV)           for each species LDAUU =   3.0  0.0
   J (eV)           for each species LDAUJ =   0.0  0.0
 Exchange correlation treatment:
   GGA     = PE    functional components
   XC_C    = 1    coefficients multiplying the functional components
   LIBXC   =     F    Libxc                    
   VOSKOWN =     0    Vosko Wilk Nusair interpolation
   LHFCALC =     F    Hartree Fock is set to
   LHFONE  =     F    Hartree Fock one center treatment
   AEXX    =    0.0000 exact exchange contribution

 Parameters of functionals:
   PE:
     No parameter
 
 Van der Waals corrections
   IVDW    =    12    specifies the selected vdW correction

 Linear response parameters
   LEPSILON=     F    determine dielectric tensor
   LRPA    =     F    only Hartree local field effects (RPA)
   LNABLA  =     F    use nabla operator in PAW spheres
   LVEL    =     F    velocity operator in full k-point grid
   CSHIFT  =0.1000    complex shift for real part using Kramers Kronig
   OMEGAMAX=  -1.0    maximum frequency
   DEG_THRESHOLD= 0.2000000E-02 threshold for treating states as degnerate
   RTIME   =   -0.100 relaxation time in fs
  (WPLASMAI=    0.000 imaginary part of plasma frequency in eV, 0.658/RTIME)
   DFIELD  = 0.0000000 0.0000000 0.0000000 field for delta impulse in time
 
  Optional k-point grid parameters
   LKPOINTS_OPT  =     F    use optional k-point grid
   KPOINTS_OPT_MODE=     1    mode for optional k-point grid
 
 Orbital magnetization related:
   ORBITALMAG=     F  switch on orbital magnetization
   LCHIMAG   =     F  perturbation theory with respect to B field
   DQ        =  0.001000  dq finite difference perturbation B field
   LLRAUG    =     F  two centre corrections for induced B field
   LBONE     =     F  B-component reconstruction in AE one-centre
   LVGVCALC  =     T  calculate vGv susceptibility
   LVGVAPPL  =     F  apply vGv susceptibility instead of pGv for G=0

 Random number generation:
   RANDOM_GENERATOR = DEFAULT
   PCG_SEED         = not used


--------------------------------------------------------------------------------------------------------


 Static calculation
 charge density and potential will be updated during run
 spin polarized calculation
 Variant of blocked Davidson
 Davidson routine will perform the subspace rotation
 perform sub-space diagonalisation
    after iterative eigenvector-optimisation
 modified Broyden-mixing scheme, WC =      100.0
 initial mixing is a Kerker type mixing with AMIX =  0.4000 and BMIX =      1.0000
 Hartree-type preconditioning will be used
 using additional bands           33
 reciprocal scheme for non local part
 use partial core corrections
 calculate Harris-corrections to forces 
   (improved forces if not selfconsistent)
 use gradient corrections 
 use of overlap-Matrix (Vanderbilt PP)
 Gauss-broadening in eV      SIGMA  =   0.03


--------------------------------------------------------------------------------------------------------


  energy-cutoff  :      600.00
  volume of cell :      440.44
      direct lattice vectors                 reciprocal lattice vectors
     4.260000000  0.000000000  0.000000000     0.234741784 -0.000000000 -0.000000000
     0.000000000  4.260000000  0.000000000     0.000000000  0.234741784 -0.000000000
     0.000000000  0.000000000 24.270000963     0.000000000  0.000000000  0.041203130

  length of vectors
     4.260000000  4.260000000 24.270000963     0.234741784  0.234741784  0.041203130


 
 k-points in units of 2pi/SCALE and weight: KPOINTS                                 
   0.00000000  0.00000000  0.00000000       0.028
   0.03912363 -0.00000000 -0.00000000       0.056
   0.00000000  0.03912363 -0.00000000       0.056
   0.07824726 -0.00000000 -0.00000000       0.056
   0.00000000  0.07824726 -0.00000000       0.056
   0.11737089 -0.00000000 -0.00000000       0.028
   0.00000000  0.11737089 -0.00000000       0.028
   0.03912363  0.03912363 -0.00000000       0.111
   0.07824726  0.03912363 -0.00000000       0.111
  -0.03912363  0.07824726 -0.00000000       0.111
   0.11737089  0.03912363 -0.00000000       0.056
  -0.03912363  0.11737089 -0.00000000       0.056
   0.07824726  0.07824726 -0.00000000       0.111
   0.11737089  0.07824726 -0.00000000       0.056
  -0.07824726  0.11737089 -0.00000000       0.056
   0.11737089  0.11737089 -0.00000000       0.028
 
 k-points in reciprocal lattice and weights: KPOINTS                                 
   0.00000000  0.00000000  0.00000000       0.028
   0.16666667 -0.00000000 -0.00000000       0.056
   0.00000000  0.16666667  0.00000000       0.056
   0.33333333 -0.00000000 -0.00000000       0.056
   0.00000000  0.33333333  0.00000000       0.056
   0.50000000 -0.00000000  0.00000000       0.028
   0.00000000  0.50000000  0.00000000       0.028
   0.16666667  0.16666667  0.00000000       0.111
   0.33333333  0.16666667  0.00000000       0.111
  -0.16666667  0.33333333  0.00000000       0.111
   0.50000000  0.16666667 -0.00000000       0.056
  -0.16666667  0.50000000  0.00000000       0.056
   0.33333333  0.33333333  0.00000000       0.111
   0.50000000  0.33333333 -0.00000000       0.056
  -0.33333333  0.50000000  0.00000000       0.056
   0.50000000  0.50000000  0.00000000       0.028
 
 position of ions in fractional coordinates (direct lattice) 
   0.99943814  0.99943846  0.49979400
   0.99943814  0.99943846  0.67339277
   0.49943791  0.99943846  0.58755663
   0.99943814  0.49943758  0.58755663
   0.49943791  0.49943758  0.49979400
   0.49943791  0.49943758  0.67339277
   0.99943789  0.99943884  0.58755667
   0.49943815  0.99943884  0.49979396
   0.49943815  0.99943884  0.67540889
   0.99943789  0.49943721  0.49979396
   0.99943789  0.49943721  0.67540889
   0.49943815  0.49943721  0.58755667
 
 position of ions in cartesian coordinates  (Angst):
   4.25760646  4.25760785 12.13000096
   4.25760646  4.25760785 16.34324320
   2.12760550  4.25760785 14.26000000
   4.25760646  2.12760410 14.26000000
   2.12760550  2.12760410 12.13000096
   2.12760550  2.12760410 16.34324320
   4.25760542  4.25760946 14.26000104
   2.12760653  4.25760946 12.12999992
   2.12760653  4.25760946 16.39217449
   4.25760542  2.12760250 12.12999992
   4.25760542  2.12760250 16.39217449
   2.12760653  2.12760250 14.26000104
 


--------------------------------------------------------------------------------------------------------


 k-point     1 :   0.0000 0.0000 0.0000  plane waves:   14665
 k-point     2 :   0.1667-0.0000-0.0000  plane waves:   14705
 k-point     3 :   0.0000 0.1667 0.0000  plane waves:   14705
 k-point     4 :   0.3333-0.0000-0.0000  plane waves:   14755
 k-point     5 :   0.0000 0.3333 0.0000  plane waves:   14755
 k-point     6 :   0.5000-0.0000 0.0000  plane waves:   14730
 k-point     7 :   0.0000 0.5000 0.0000  plane waves:   14730
 k-point     8 :   0.1667 0.1667 0.0000  plane waves:   14732
 k-point     9 :   0.3333 0.1667 0.0000  plane waves:   14705
 k-point    10 :  -0.1667 0.3333 0.0000  plane waves:   14705
 k-point    11 :   0.5000 0.1667-0.0000  plane waves:   14658
 k-point    12 :  -0.1667 0.5000 0.0000  plane waves:   14658
 k-point    13 :   0.3333 0.3333 0.0000  plane waves:   14654
 k-point    14 :   0.5000 0.3333-0.0000  plane waves:   14646
 k-point    15 :  -0.3333 0.5000 0.0000  plane waves:   14646
 k-point    16 :   0.5000 0.5000 0.0000  plane waves:   14552

 maximum and minimum number of plane-waves per node :     14755    14552

 maximum number of plane-waves:     14755
 maximum index in each direction: 
   IXMAX=    8   IYMAX=    8   IZMAX=   48
   IXMIN=   -9   IYMIN=   -9   IZMIN=  -48


 serial   3D FFT for wavefunctions
 parallel 3D FFT for charge:
    minimum data exchange during FFTs selected (reduces bandwidth)


 total amount of memory used by VASP MPI-rank0   155203. kBytes
=======================================================================

   base      :      30000. kBytes
   nonl-proj :      70886. kBytes
   fftplans  :       3857. kBytes
   grid      :      27164. kBytes
   one-center:        373. kBytes
   wavefun   :      22923. kBytes
 
     INWAV:  cpu time      0.0000: real time      0.0000
 Broyden mixing: mesh for mixing (old mesh)
   NGX = 17   NGY = 17   NGZ = 97
  (NGX  = 72   NGY  = 72   NGZ  =392)
  gives a total of  28033 points

 initial charge density was supplied:
 charge density of overlapping atoms calculated
 number of electron      90.0000000 magnetization      -0.0000000
 keeping initial charge density in first step


--------------------------------------------------------------------------------------------------------


 Maximum index for augmentation-charges          938 (set IRDMAX)


--------------------------------------------------------------------------------------------------------


 First call to EWALD:  gamma=   0.233
 Maximum number of real-space cells 5x 5x 1
 Maximum number of reciprocal cells 2x 2x 8

    FEWALD:  cpu time      0.0028: real time      0.0028


--------------------------------------- Ionic step        1  -------------------------------------------




--------------------------------------- Iteration      1(   1)  ---------------------------------------


    POTLOK:  cpu time      0.0811: real time      0.1024
    SETDIJ:  cpu time      0.3012: real time      0.3035
atom =   1  type =  1  l = 2
 
 onsite density matrix
 
spin component  1
 
  1.1539  0.0000  0.0000  0.0000  0.0000
  0.0000  1.1539  0.0000  0.0000  0.0000
  0.0000  0.0000  1.1539  0.0000  0.0000
  0.0000  0.0000  0.0000  1.1539  0.0000
  0.0000  0.0000  0.0000  0.0000  1.1539
 
spin component  2
 
  0.3297  0.0000  0.0000  0.0000  0.0000
  0.0000  0.3297  0.0000  0.0000  0.0000
  0.0000  0.0000  0.3297  0.0000 -0.0000
  0.0000  0.0000  0.0000  0.3297  0.0000
  0.0000  0.0000 -0.0000  0.0000  0.3297
 
 occupancies and eigenvectors
 
  o =  0.3297  v =  0.0000  0.0000  0.0000  0.0000  0.0000  0.0000  0.0000  0.0000  0.7071 -0.7071      0.0000  0.0000  0.0000  0.0000  0.0000  0.0000  0.0000  0.0000  0.0000  0.0000
  o =  0.3297  v =  0.0000  0.0000  0.0000  0.0000  0.0000  1.0000  0.0000  0.0000  0.0000  0.0000      0.0000  0.0000  0.0000  0.0000  0.0000  0.0000  0.0000  0.0000  0.0000  0.0000
  o =  0.3297  v =  0.0000  0.0000  0.0000  0.0000  0.0000  0.0000  1.0000  0.0000  0.0000  0.0000      0.0000  0.0000  0.0000  0.0000  0.0000  0.0000  0.0000  0.0000  0.0000  0.0000
  o =  0.3297  v =  0.0000  0.0000  0.0000  0.0000  0.0000  0.0000  0.0000  1.0000  0.0000  0.0000      0.0000  0.0000  0.0000  0.0000  0.0000  0.0000  0.0000  0.0000  0.0000  0.0000
  o =  0.3297  v =  0.0000  0.0000  0.0000  0.0000  0.0000  0.0000  0.0000  0.0000  0.7071  0.7071      0.0000  0.0000  0.0000  0.0000  0.0000  0.0000  0.0000  0.0000  0.0000  0.0000
  o =  1.1539  v =  0.0000  1.0000  0.0000  0.0000  0.0000  0.0000  0.0000  0.0000  0.0000  0.0000      0.0000  0.0000  0.0000  0.0000  0.0000  0.0000  0.0000  0.0000  0.0000  0.0000
  o =  1.1539  v =  0.0000  0.0000  1.0000  0.0000  0.0000  0.0000  0.0000  0.0000  0.0000  0.0000      0.0000  0.0000  0.0000  0.0000  0.0000  0.0000  0.0000  0.0000  0.0000  0.0000
  o =  1.1539  v =  0.0000  0.0000  0.0000  0.0000 -1.0000  0.0000  0.0000  0.0000  0.0000  0.0000      0.0000  0.0000  0.0000  0.0000  0.0000  0.0000  0.0000  0.0000  0.0000  0.0000
  o =  1.1539  v =  0.0000  0.0000  0.0000 -1.0000  0.0000  0.0000  0.0000  0.0000  0.0000  0.0000      0.0000  0.0000  0.0000  0.0000  0.0000  0.0000  0.0000  0.0000  0.0000  0.0000
  o =  1.1539  v =  1.0000  0.0000  0.0000  0.0000  0.0000  0.0000  0.0000  0.0000  0.0000  0.0000      0.0000  0.0000  0.0000  0.0000  0.0000  0.0000  0.0000  0.0000  0.0000  0.0000
 
atom =   2  type =  1  l = 2
 
 onsite density matrix
 
spin component  1
 
  1.1539  0.0000  0.0000  0.0000  0.0000
  0.0000  1.1539  0.0000  0.0000  0.0000
  0.0000  0.0000  1.1539  0.0000  0.0000
  0.0000  0.0000  0.0000  1.1539  0.0000
  0.0000  0.0000  0.0000  0.0000  1.1539
 
spin component  2
 
  0.3297  0.0000  0.0000  0.0000  0.0000
  0.0000  0.3297  0.0000  0.0000  0.0000
  0.0000  0.0000  0.3297  0.0000 -0.0000
  0.0000  0.0000  0.0000  0.3297  0.0000
  0.0000  0.0000 -0.0000  0.0000  0.3297
 
 occupancies and eigenvectors
 
  o =  0.3297  v =  0.0000  0.0000  0.0000  0.0000  0.0000  0.0000  0.0000  0.0000  0.7071 -0.7071      0.0000  0.0000  0.0000  0.0000  0.0000  0.0000  0.0000  0.0000  0.0000  0.0000
  o =  0.3297  v =  0.0000  0.0000  0.0000  0.0000  0.0000  1.0000  0.0000  0.0000  0.0000  0.0000      0.0000  0.0000  0.0000  0.0000  0.0000  0.0000  0.0000  0.0000  0.0000  0.0000
  o =  0.3297  v =  0.0000  0.0000  0.0000  0.0000  0.0000  0.0000  1.0000  0.0000  0.0000  0.0000      0.0000  0.0000  0.0000  0.0000  0.0000  0.0000  0.0000  0.0000  0.0000  0.0000
  o =  0.3297  v =  0.0000  0.0000  0.0000  0.0000  0.0000  0.0000  0.0000  1.0000  0.0000  0.0000      0.0000  0.0000  0.0000  0.0000  0.0000  0.0000  0.0000  0.0000  0.0000  0.0000
  o =  0.3297  v =  0.0000  0.0000  0.0000  0.0000  0.0000  0.0000  0.0000  0.0000  0.7071  0.7071      0.0000  0.0000  0.0000  0.0000  0.0000  0.0000  0.0000  0.0000  0.0000  0.0000
  o =  1.1539  v =  0.0000  1.0000  0.0000  0.0000  0.0000  0.0000  0.0000  0.0000  0.0000  0.0000      0.0000  0.0000  0.0000  0.0000  0.0000  0.0000  0.0000  0.0000  0.0000  0.0000
  o =  1.1539  v =  0.0000  0.0000  1.0000  0.0000  0.0000  0.0000  0.0000  0.0000  0.0000  0.0000      0.0000  0.0000  0.0000  0.0000  0.0000  0.0000  0.0000  0.0000  0.0000  0.0000
  o =  1.1539  v =  0.0000  0.0000  0.0000  0.0000 -1.0000  0.0000  0.0000  0.0000  0.0000  0.0000      0.0000  0.0000  0.0000  0.0000  0.0000  0.0000  0.0000  0.0000  0.0000  0.0000
  o =  1.1539  v =  0.0000  0.0000  0.0000 -1.0000  0.0000  0.0000  0.0000  0.0000  0.0000  0.0000      0.0000  0.0000  0.0000  0.0000  0.0000  0.0000  0.0000  0.0000  0.0000  0.0000
  o =  1.1539  v =  1.0000  0.0000  0.0000  0.0000  0.0000  0.0000  0.0000  0.0000  0.0000  0.0000      0.0000  0.0000  0.0000  0.0000  0.0000  0.0000  0.0000  0.0000  0.0000  0.0000
 
atom =   3  type =  1  l = 2
 
 onsite density matrix
 
spin component  1
 
  1.1539  0.0000  0.0000  0.0000  0.0000
  0.0000  1.1539  0.0000  0.0000  0.0000
  0.0000  0.0000  1.1539  0.0000  0.0000
  0.0000  0.0000  0.0000  1.1539  0.0000
  0.0000  0.0000  0.0000  0.0000  1.1539
 
spin component  2
 
  0.3297  0.0000  0.0000  0.0000  0.0000
  0.0000  0.3297  0.0000  0.0000  0.0000
  0.0000  0.0000  0.3297  0.0000 -0.0000
  0.0000  0.0000  0.0000  0.3297  0.0000
  0.0000  0.0000 -0.0000  0.0000  0.3297
 
 occupancies and eigenvectors
 
  o =  0.3297  v =  0.0000  0.0000  0.0000  0.0000  0.0000  0.0000  0.0000  0.0000  0.7071 -0.7071      0.0000  0.0000  0.0000  0.0000  0.0000  0.0000  0.0000  0.0000  0.0000  0.0000
  o =  0.3297  v =  0.0000  0.0000  0.0000  0.0000  0.0000  1.0000  0.0000  0.0000  0.0000  0.0000      0.0000  0.0000  0.0000  0.0000  0.0000  0.0000  0.0000  0.0000  0.0000  0.0000
  o =  0.3297  v =  0.0000  0.0000  0.0000  0.0000  0.0000  0.0000  1.0000  0.0000  0.0000  0.0000      0.0000  0.0000  0.0000  0.0000  0.0000  0.0000  0.0000  0.0000  0.0000  0.0000
  o =  0.3297  v =  0.0000  0.0000  0.0000  0.0000  0.0000  0.0000  0.0000  1.0000  0.0000  0.0000      0.0000  0.0000  0.0000  0.0000  0.0000  0.0000  0.0000  0.0000  0.0000  0.0000
  o =  0.3297  v =  0.0000  0.0000  0.0000  0.0000  0.0000  0.0000  0.0000  0.0000  0.7071  0.7071      0.0000  0.0000  0.0000  0.0000  0.0000  0.0000  0.0000  0.0000  0.0000  0.0000
  o =  1.1539  v =  0.0000  1.0000  0.0000  0.0000  0.0000  0.0000  0.0000  0.0000  0.0000  0.0000      0.0000  0.0000  0.0000  0.0000  0.0000  0.0000  0.0000  0.0000  0.0000  0.0000
  o =  1.1539  v =  0.0000  0.0000  1.0000  0.0000  0.0000  0.0000  0.0000  0.0000  0.0000  0.0000      0.0000  0.0000  0.0000  0.0000  0.0000  0.0000  0.0000  0.0000  0.0000  0.0000
  o =  1.1539  v =  0.0000  0.0000  0.0000  0.0000 -1.0000  0.0000  0.0000  0.0000  0.0000  0.0000      0.0000  0.0000  0.0000  0.0000  0.0000  0.0000  0.0000  0.0000  0.0000  0.0000
  o =  1.1539  v =  0.0000  0.0000  0.0000 -1.0000  0.0000  0.0000  0.0000  0.0000  0.0000  0.0000      0.0000  0.0000  0.0000  0.0000  0.0000  0.0000  0.0000  0.0000  0.0000  0.0000
  o =  1.1539  v =  1.0000  0.0000  0.0000  0.0000  0.0000  0.0000  0.0000  0.0000  0.0000  0.0000      0.0000  0.0000  0.0000  0.0000  0.0000  0.0000  0.0000  0.0000  0.0000  0.0000
 
atom =   4  type =  1  l = 2
 
 onsite density matrix
 
spin component  1
 
  0.3297  0.0000  0.0000  0.0000  0.0000
  0.0000  0.3297  0.0000  0.0000  0.0000
  0.0000  0.0000  0.3297  0.0000 -0.0000
  0.0000  0.0000  0.0000  0.3297  0.0000
  0.0000  0.0000 -0.0000  0.0000  0.3297
 
spin component  2
 
  1.1539  0.0000  0.0000  0.0000  0.0000
  0.0000  1.1539  0.0000  0.0000  0.0000
  0.0000  0.0000  1.1539  0.0000  0.0000
  0.0000  0.0000  0.0000  1.1539  0.0000
  0.0000  0.0000  0.0000  0.0000  1.1539
 
 occupancies and eigenvectors
 
  o =  0.3297  v =  0.0000  0.0000  0.0000  0.7071 -0.7071  0.0000  0.0000  0.0000  0.0000  0.0000      0.0000  0.0000  0.0000  0.0000  0.0000  0.0000  0.0000  0.0000  0.0000  0.0000
  o =  0.3297  v =  0.0000  1.0000  0.0000  0.0000  0.0000  0.0000  0.0000  0.0000  0.0000  0.0000      0.0000  0.0000  0.0000  0.0000  0.0000  0.0000  0.0000  0.0000  0.0000  0.0000
  o =  0.3297  v =  0.0000  0.0000  1.0000  0.0000  0.0000  0.0000  0.0000  0.0000  0.0000  0.0000      0.0000  0.0000  0.0000  0.0000  0.0000  0.0000  0.0000  0.0000  0.0000  0.0000
  o =  0.3297  v =  0.0000  0.0000  0.0000  0.7071  0.7071  0.0000  0.0000  0.0000  0.0000  0.0000      0.0000  0.0000  0.0000  0.0000  0.0000  0.0000  0.0000  0.0000  0.0000  0.0000
  o =  0.3297  v =  1.0000  0.0000  0.0000  0.0000  0.0000  0.0000  0.0000  0.0000  0.0000  0.0000      0.0000  0.0000  0.0000  0.0000  0.0000  0.0000  0.0000  0.0000  0.0000  0.0000
  o =  1.1539  v =  0.0000  0.0000  0.0000  0.0000  0.0000  1.0000  0.0000  0.0000  0.0000  0.0000      0.0000  0.0000  0.0000  0.0000  0.0000  0.0000  0.0000  0.0000  0.0000  0.0000
  o =  1.1539  v =  0.0000  0.0000  0.0000  0.0000  0.0000  0.0000  1.0000  0.0000  0.0000  0.0000      0.0000  0.0000  0.0000  0.0000  0.0000  0.0000  0.0000  0.0000  0.0000  0.0000
  o =  1.1539  v =  0.0000  0.0000  0.0000  0.0000  0.0000  0.0000  0.0000  1.0000  0.0000  0.0000      0.0000  0.0000  0.0000  0.0000  0.0000  0.0000  0.0000  0.0000  0.0000  0.0000
  o =  1.1539  v =  0.0000  0.0000  0.0000  0.0000  0.0000  0.0000  0.0000  0.0000  0.0000 -1.0000      0.0000  0.0000  0.0000  0.0000  0.0000  0.0000  0.0000  0.0000  0.0000  0.0000
  o =  1.1539  v =  0.0000  0.0000  0.0000  0.0000  0.0000  0.0000  0.0000  0.0000 -1.0000  0.0000      0.0000  0.0000  0.0000  0.0000  0.0000  0.0000  0.0000  0.0000  0.0000  0.0000
 
atom =   5  type =  1  l = 2
 
 onsite density matrix
 
spin component  1
 
  0.3297  0.0000  0.0000  0.0000  0.0000
  0.0000  0.3297  0.0000  0.0000  0.0000
  0.0000  0.0000  0.3297  0.0000 -0.0000
  0.0000  0.0000  0.0000  0.3297  0.0000
  0.0000  0.0000 -0.0000  0.0000  0.3297
 
spin component  2
 
  1.1539  0.0000  0.0000  0.0000  0.0000
  0.0000  1.1539  0.0000  0.0000  0.0000
  0.0000  0.0000  1.1539  0.0000  0.0000
  0.0000  0.0000  0.0000  1.1539  0.0000
  0.0000  0.0000  0.0000  0.0000  1.1539
 
 occupancies and eigenvectors
 
  o =  0.3297  v =  0.0000  0.0000  0.0000  0.7071 -0.7071  0.0000  0.0000  0.0000  0.0000  0.0000      0.0000  0.0000  0.0000  0.0000  0.0000  0.0000  0.0000  0.0000  0.0000  0.0000
  o =  0.3297  v =  0.0000  1.0000  0.0000  0.0000  0.0000  0.0000  0.0000  0.0000  0.0000  0.0000      0.0000  0.0000  0.0000  0.0000  0.0000  0.0000  0.0000  0.0000  0.0000  0.0000
  o =  0.3297  v =  0.0000  0.0000  1.0000  0.0000  0.0000  0.0000  0.0000  0.0000  0.0000  0.0000      0.0000  0.0000  0.0000  0.0000  0.0000  0.0000  0.0000  0.0000  0.0000  0.0000
  o =  0.3297  v =  0.0000  0.0000  0.0000  0.7071  0.7071  0.0000  0.0000  0.0000  0.0000  0.0000      0.0000  0.0000  0.0000  0.0000  0.0000  0.0000  0.0000  0.0000  0.0000  0.0000
  o =  0.3297  v =  1.0000  0.0000  0.0000  0.0000  0.0000  0.0000  0.0000  0.0000  0.0000  0.0000      0.0000  0.0000  0.0000  0.0000  0.0000  0.0000  0.0000  0.0000  0.0000  0.0000
  o =  1.1539  v =  0.0000  0.0000  0.0000  0.0000  0.0000  1.0000  0.0000  0.0000  0.0000  0.0000      0.0000  0.0000  0.0000  0.0000  0.0000  0.0000  0.0000  0.0000  0.0000  0.0000
  o =  1.1539  v =  0.0000  0.0000  0.0000  0.0000  0.0000  0.0000  1.0000  0.0000  0.0000  0.0000      0.0000  0.0000  0.0000  0.0000  0.0000  0.0000  0.0000  0.0000  0.0000  0.0000
  o =  1.1539  v =  0.0000  0.0000  0.0000  0.0000  0.0000  0.0000  0.0000  1.0000  0.0000  0.0000      0.0000  0.0000  0.0000  0.0000  0.0000  0.0000  0.0000  0.0000  0.0000  0.0000
  o =  1.1539  v =  0.0000  0.0000  0.0000  0.0000  0.0000  0.0000  0.0000  0.0000  0.0000 -1.0000      0.0000  0.0000  0.0000  0.0000  0.0000  0.0000  0.0000  0.0000  0.0000  0.0000
  o =  1.1539  v =  0.0000  0.0000  0.0000  0.0000  0.0000  0.0000  0.0000  0.0000 -1.0000  0.0000      0.0000  0.0000  0.0000  0.0000  0.0000  0.0000  0.0000  0.0000  0.0000  0.0000
 
atom =   6  type =  1  l = 2
 
 onsite density matrix
 
spin component  1
 
  0.3297  0.0000  0.0000  0.0000  0.0000
  0.0000  0.3297  0.0000  0.0000  0.0000
  0.0000  0.0000  0.3297  0.0000 -0.0000
  0.0000  0.0000  0.0000  0.3297  0.0000
  0.0000  0.0000 -0.0000  0.0000  0.3297
 
spin component  2
 
  1.1539  0.0000  0.0000  0.0000  0.0000
  0.0000  1.1539  0.0000  0.0000  0.0000
  0.0000  0.0000  1.1539  0.0000  0.0000
  0.0000  0.0000  0.0000  1.1539  0.0000
  0.0000  0.0000  0.0000  0.0000  1.1539
 
 occupancies and eigenvectors
 
  o =  0.3297  v =  0.0000  0.0000  0.0000  0.7071 -0.7071  0.0000  0.0000  0.0000  0.0000  0.0000      0.0000  0.0000  0.0000  0.0000  0.0000  0.0000  0.0000  0.0000  0.0000  0.0000
  o =  0.3297  v =  0.0000  1.0000  0.0000  0.0000  0.0000  0.0000  0.0000  0.0000  0.0000  0.0000      0.0000  0.0000  0.0000  0.0000  0.0000  0.0000  0.0000  0.0000  0.0000  0.0000
  o =  0.3297  v =  0.0000  0.0000  1.0000  0.0000  0.0000  0.0000  0.0000  0.0000  0.0000  0.0000      0.0000  0.0000  0.0000  0.0000  0.0000  0.0000  0.0000  0.0000  0.0000  0.0000
  o =  0.3297  v =  0.0000  0.0000  0.0000  0.7071  0.7071  0.0000  0.0000  0.0000  0.0000  0.0000      0.0000  0.0000  0.0000  0.0000  0.0000  0.0000  0.0000  0.0000  0.0000  0.0000
  o =  0.3297  v =  1.0000  0.0000  0.0000  0.0000  0.0000  0.0000  0.0000  0.0000  0.0000  0.0000      0.0000  0.0000  0.0000  0.0000  0.0000  0.0000  0.0000  0.0000  0.0000  0.0000
  o =  1.1539  v =  0.0000  0.0000  0.0000  0.0000  0.0000  1.0000  0.0000  0.0000  0.0000  0.0000      0.0000  0.0000  0.0000  0.0000  0.0000  0.0000  0.0000  0.0000  0.0000  0.0000
  o =  1.1539  v =  0.0000  0.0000  0.0000  0.0000  0.0000  0.0000  1.0000  0.0000  0.0000  0.0000      0.0000  0.0000  0.0000  0.0000  0.0000  0.0000  0.0000  0.0000  0.0000  0.0000
  o =  1.1539  v =  0.0000  0.0000  0.0000  0.0000  0.0000  0.0000  0.0000  1.0000  0.0000  0.0000      0.0000  0.0000  0.0000  0.0000  0.0000  0.0000  0.0000  0.0000  0.0000  0.0000
  o =  1.1539  v =  0.0000  0.0000  0.0000  0.0000  0.0000  0.0000  0.0000  0.0000  0.0000 -1.0000      0.0000  0.0000  0.0000  0.0000  0.0000  0.0000  0.0000  0.0000  0.0000  0.0000
  o =  1.1539  v =  0.0000  0.0000  0.0000  0.0000  0.0000  0.0000  0.0000  0.0000 -1.0000  0.0000      0.0000  0.0000  0.0000  0.0000  0.0000  0.0000  0.0000  0.0000  0.0000  0.0000
 
     EDDAV:  cpu time      4.9029: real time      4.9574
       DOS:  cpu time      0.0231: real time      0.0252
    --------------------------------------------
      LOOP:  cpu time      5.3083: real time      5.3886

 eigenvalue-minimisations  :  4992
 total energy-change (2. order) : 0.8226561E+03  (-0.4069749E+04)
 number of electron      90.0000000 magnetization      -0.0000000
 augmentation part       90.0000000 magnetization      -0.0000000

 Free energy of the ion-electron system (eV)
  ---------------------------------------------------
  alpha Z        PSCENC =        86.09644943
  Ewald energy   TEWEN  =     39626.73965434
  -Hartree energ DENC   =    -46546.83731639
  -exchange      EXHF   =         0.00000000
  -V(xc)+E(xc)   XCENC  =       277.06934429
  PAW double counting   =      6387.99173176    -6651.03158215
  entropy T*S    EENTRO =        -0.00439163
  eigenvalues    EBANDS =       168.26890585
  atomic energy  EATOM  =      7474.36329711
  Solvation  Ediel_sol  =         0.00000000
  ---------------------------------------------------
  free energy    TOTEN  =       822.65609260 eV

  energy without entropy =      822.66048424  energy(sigma->0) =      822.65828842


--------------------------------------------------------------------------------------------------------




--------------------------------------- Iteration      1(   2)  ---------------------------------------


     EDDAV:  cpu time      1.3548: real time      1.3694
       DOS:  cpu time      0.0010: real time      0.0010
    --------------------------------------------
      LOOP:  cpu time      1.3557: real time      1.3704

 eigenvalue-minimisations  :  5278
 total energy-change (2. order) :-0.7602430E+03  (-0.6942408E+03)
 number of electron      90.0000000 magnetization      -0.0000000
 augmentation part       90.0000000 magnetization      -0.0000000

 Free energy of the ion-electron system (eV)
  ---------------------------------------------------
  alpha Z        PSCENC =        86.09644943
  Ewald energy   TEWEN  =     39626.73965434
  -Hartree energ DENC   =    -46546.83731639
  -exchange      EXHF   =         0.00000000
  -V(xc)+E(xc)   XCENC  =       277.06934429
  PAW double counting   =      6387.99173176    -6651.03158215
  entropy T*S    EENTRO =        -0.00970384
  eigenvalues    EBANDS =      -591.96875481
  atomic energy  EATOM  =      7474.36329711
  Solvation  Ediel_sol  =         0.00000000
  ---------------------------------------------------
  free energy    TOTEN  =        62.41311973 eV

  energy without entropy =       62.42282357  energy(sigma->0) =       62.41797165


--------------------------------------------------------------------------------------------------------




--------------------------------------- Iteration      1(   3)  ---------------------------------------


     EDDAV:  cpu time      1.6810: real time      1.6995
       DOS:  cpu time      0.0009: real time      0.0009
    --------------------------------------------
      LOOP:  cpu time      1.6819: real time      1.7004

 eigenvalue-minimisations  :  7072
 total energy-change (2. order) :-0.1382851E+03  (-0.1348566E+03)
 number of electron      90.0000000 magnetization      -0.0000000
 augmentation part       90.0000000 magnetization      -0.0000000

 Free energy of the ion-electron system (eV)
  ---------------------------------------------------
  alpha Z        PSCENC =        86.09644943
  Ewald energy   TEWEN  =     39626.73965434
  -Hartree energ DENC   =    -46546.83731639
  -exchange      EXHF   =         0.00000000
  -V(xc)+E(xc)   XCENC  =       277.06934429
  PAW double counting   =      6387.99173176    -6651.03158215
  entropy T*S    EENTRO =        -0.01759830
  eigenvalues    EBANDS =      -730.24591526
  atomic energy  EATOM  =      7474.36329711
  Solvation  Ediel_sol  =         0.00000000
  ---------------------------------------------------
  free energy    TOTEN  =       -75.87193517 eV

  energy without entropy =      -75.85433687  energy(sigma->0) =      -75.86313602


--------------------------------------------------------------------------------------------------------




--------------------------------------- Iteration      1(   4)  ---------------------------------------


     EDDAV:  cpu time      1.3509: real time      1.3646
       DOS:  cpu time      0.0008: real time      0.0008
    --------------------------------------------
      LOOP:  cpu time      1.3516: real time      1.3654

 eigenvalue-minimisations  :  5408
 total energy-change (2. order) :-0.4348656E+01  (-0.4343322E+01)
 number of electron      90.0000000 magnetization      -0.0000000
 augmentation part       90.0000000 magnetization      -0.0000000

 Free energy of the ion-electron system (eV)
  ---------------------------------------------------
  alpha Z        PSCENC =        86.09644943
  Ewald energy   TEWEN  =     39626.73965434
  -Hartree energ DENC   =    -46546.83731639
  -exchange      EXHF   =         0.00000000
  -V(xc)+E(xc)   XCENC  =       277.06934429
  PAW double counting   =      6387.99173176    -6651.03158215
  entropy T*S    EENTRO =        -0.01581489
  eigenvalues    EBANDS =      -734.59635442
  atomic energy  EATOM  =      7474.36329711
  Solvation  Ediel_sol  =         0.00000000
  ---------------------------------------------------
  free energy    TOTEN  =       -80.22059093 eV

  energy without entropy =      -80.20477604  energy(sigma->0) =      -80.21268348


--------------------------------------------------------------------------------------------------------




--------------------------------------- Iteration      1(   5)  ---------------------------------------


     EDDAV:  cpu time      1.6203: real time      1.6366
       DOS:  cpu time      0.0010: real time      0.0010
    CHARGE:  cpu time      0.1211: real time      0.1246
    MIXING:  cpu time      0.0084: real time      0.0103
    --------------------------------------------
      LOOP:  cpu time      1.7508: real time      1.7726

 eigenvalue-minimisations  :  6786
 total energy-change (2. order) :-0.6632205E-01  (-0.6631323E-01)
 number of electron      90.0000012 magnetization      -0.0000000
 augmentation part       31.7716128 magnetization      -0.0000000

 Broyden mixing:
  rms(total) = 0.42076E+01    rms(broyden)= 0.42075E+01
  rms(prec ) = 0.43923E+01
  weight for this iteration     100.00

 Free energy of the ion-electron system (eV)
  ---------------------------------------------------
  alpha Z        PSCENC =        86.09644943
  Ewald energy   TEWEN  =     39626.73965434
  -Hartree energ DENC   =    -46546.83731639
  -exchange      EXHF   =         0.00000000
  -V(xc)+E(xc)   XCENC  =       277.06934429
  PAW double counting   =      6387.99173176    -6651.03158215
  entropy T*S    EENTRO =        -0.01576155
  eigenvalues    EBANDS =      -734.66272980
  atomic energy  EATOM  =      7474.36329711
  Solvation  Ediel_sol  =         0.00000000
  ---------------------------------------------------
  free energy    TOTEN  =       -80.28691297 eV

  energy without entropy =      -80.27115142  energy(sigma->0) =      -80.27903220


--------------------------------------------------------------------------------------------------------




--------------------------------------- Iteration      1(   6)  ---------------------------------------


    POTLOK:  cpu time      0.0738: real time      0.0748
    SETDIJ:  cpu time      0.2979: real time      0.2992
atom =   1  type =  1  l = 2
 
 onsite density matrix
 
spin component  1
 
  0.9361  0.0000 -0.0000  0.0000 -0.0000
  0.0000  0.9636  0.0000  0.0000 -0.0000
 -0.0000  0.0000  1.1082  0.0000 -0.0002
  0.0000  0.0000  0.0000  0.9976  0.0000
 -0.0000 -0.0000 -0.0002  0.0000  1.1573
 
spin component  2
 
  0.4885 -0.0000  0.0000 -0.0000  0.0000
 -0.0000  0.4414 -0.0000 -0.0000  0.0000
  0.0000 -0.0000  0.2207 -0.0000  0.0003
 -0.0000 -0.0000 -0.0000  0.3827 -0.0000
  0.0000  0.0000  0.0003 -0.0000  0.1649
 
 occupancies and eigenvectors
 
  o =  0.1649  v =  0.0000  0.0000  0.0000  0.0000  0.0000  0.0000  0.0000  0.0049  0.0000 -1.0000      0.0000  0.0000  0.0000  0.0000  0.0000  0.0000  0.0000  0.0000  0.0000  0.0000
  o =  0.2207  v =  0.0000  0.0000  0.0000  0.0000  0.0000 -0.0000 -0.0000  1.0000 -0.0000  0.0049      0.0000  0.0000  0.0000  0.0000  0.0000  0.0000  0.0000  0.0000  0.0000  0.0000
  o =  0.3827  v =  0.0000  0.0000  0.0000  0.0000  0.0000 -0.0000  0.0000 -0.0000 -1.0000 -0.0000      0.0000  0.0000  0.0000  0.0000  0.0000  0.0000  0.0000  0.0000  0.0000  0.0000
  o =  0.4414  v =  0.0000  0.0000  0.0000  0.0000  0.0000  0.0000  1.0000  0.0000  0.0000 -0.0000      0.0000  0.0000  0.0000  0.0000  0.0000  0.0000  0.0000  0.0000  0.0000  0.0000
  o =  0.4885  v =  0.0000  0.0000  0.0000  0.0000  0.0000 -1.0000  0.0000 -0.0000  0.0000 -0.0000      0.0000  0.0000  0.0000  0.0000  0.0000  0.0000  0.0000  0.0000  0.0000  0.0000
  o =  0.9361  v =  1.0000  0.0000  0.0000  0.0000  0.0000  0.0000  0.0000  0.0000  0.0000  0.0000      0.0000  0.0000  0.0000  0.0000  0.0000  0.0000  0.0000  0.0000  0.0000  0.0000
  o =  0.9636  v =  0.0000  1.0000  0.0000 -0.0000 -0.0000  0.0000  0.0000  0.0000  0.0000  0.0000      0.0000  0.0000  0.0000  0.0000  0.0000  0.0000  0.0000  0.0000  0.0000  0.0000
  o =  0.9976  v =  0.0000  0.0000 -0.0000  1.0000  0.0000  0.0000  0.0000  0.0000  0.0000  0.0000      0.0000  0.0000  0.0000  0.0000  0.0000  0.0000  0.0000  0.0000  0.0000  0.0000
  o =  1.1082  v =  0.0000 -0.0000  1.0000  0.0000  0.0047  0.0000  0.0000  0.0000  0.0000  0.0000      0.0000  0.0000  0.0000  0.0000  0.0000  0.0000  0.0000  0.0000  0.0000  0.0000
  o =  1.1573  v =  0.0000 -0.0000  0.0047  0.0000 -1.0000  0.0000  0.0000  0.0000  0.0000  0.0000      0.0000  0.0000  0.0000  0.0000  0.0000  0.0000  0.0000  0.0000  0.0000  0.0000
 
atom =   2  type =  1  l = 2
 
 onsite density matrix
 
spin component  1
 
  0.9103  0.0000 -0.0000  0.0000 -0.0000
  0.0000  0.9466  0.0000  0.0000 -0.0000
 -0.0000  0.0000  1.1145  0.0000 -0.0001
  0.0000  0.0000  0.0000  0.9904  0.0000
 -0.0000 -0.0000 -0.0001  0.0000  1.1567
 
spin component  2
 
  0.5321 -0.0000  0.0000 -0.0000  0.0000
 -0.0000  0.4707 -0.0000 -0.0000  0.0000
  0.0000 -0.0000  0.2123 -0.0000  0.0001
 -0.0000 -0.0000 -0.0000  0.3956 -0.0000
  0.0000  0.0000  0.0001 -0.0000  0.1659
 
 occupancies and eigenvectors
 
  o =  0.1659  v =  0.0000  0.0000  0.0000  0.0000  0.0000  0.0000  0.0000  0.0023  0.0000 -1.0000      0.0000  0.0000  0.0000  0.0000  0.0000  0.0000  0.0000  0.0000  0.0000  0.0000
  o =  0.2123  v =  0.0000  0.0000  0.0000  0.0000  0.0000 -0.0000 -0.0000  1.0000 -0.0000  0.0023      0.0000  0.0000  0.0000  0.0000  0.0000  0.0000  0.0000  0.0000  0.0000  0.0000
  o =  0.3956  v =  0.0000  0.0000  0.0000  0.0000  0.0000 -0.0000  0.0000 -0.0000 -1.0000 -0.0000      0.0000  0.0000  0.0000  0.0000  0.0000  0.0000  0.0000  0.0000  0.0000  0.0000
  o =  0.4707  v =  0.0000  0.0000  0.0000  0.0000  0.0000  0.0000  1.0000  0.0000  0.0000  0.0000      0.0000  0.0000  0.0000  0.0000  0.0000  0.0000  0.0000  0.0000  0.0000  0.0000
  o =  0.5321  v =  0.0000  0.0000  0.0000  0.0000  0.0000 -1.0000  0.0000 -0.0000  0.0000 -0.0000      0.0000  0.0000  0.0000  0.0000  0.0000  0.0000  0.0000  0.0000  0.0000  0.0000
  o =  0.9103  v =  1.0000  0.0000  0.0000  0.0000  0.0000  0.0000  0.0000  0.0000  0.0000  0.0000      0.0000  0.0000  0.0000  0.0000  0.0000  0.0000  0.0000  0.0000  0.0000  0.0000
  o =  0.9466  v =  0.0000  1.0000 -0.0000  0.0000  0.0000  0.0000  0.0000  0.0000  0.0000  0.0000      0.0000  0.0000  0.0000  0.0000  0.0000  0.0000  0.0000  0.0000  0.0000  0.0000
  o =  0.9904  v =  0.0000 -0.0000  0.0000  1.0000 -0.0000  0.0000  0.0000  0.0000  0.0000  0.0000      0.0000  0.0000  0.0000  0.0000  0.0000  0.0000  0.0000  0.0000  0.0000  0.0000
  o =  1.1145  v =  0.0000  0.0000  1.0000 -0.0000  0.0025  0.0000  0.0000  0.0000  0.0000  0.0000      0.0000  0.0000  0.0000  0.0000  0.0000  0.0000  0.0000  0.0000  0.0000  0.0000
  o =  1.1567  v =  0.0000  0.0000  0.0025 -0.0000 -1.0000  0.0000  0.0000  0.0000  0.0000  0.0000      0.0000  0.0000  0.0000  0.0000  0.0000  0.0000  0.0000  0.0000  0.0000  0.0000
 
atom =   3  type =  1  l = 2
 
 onsite density matrix
 
spin component  1
 
  0.7723  0.0000 -0.0000  0.0000 -0.0000
  0.0000  0.7831  0.0000  0.0000 -0.0000
 -0.0000  0.0000  1.1404  0.0000 -0.0052
  0.0000  0.0000  0.0000  0.8266  0.0000
 -0.0000 -0.0000 -0.0052  0.0000  1.1447
 
spin component  2
 
  0.7629  0.0000  0.0000 -0.0000  0.0000
  0.0000  0.7440 -0.0000  0.0000 -0.0000
  0.0000 -0.0000  0.1960 -0.0000  0.0084
 -0.0000  0.0000 -0.0000  0.6689 -0.0000
  0.0000 -0.0000  0.0084 -0.0000  0.1855
 
 occupancies and eigenvectors
 
  o =  0.1808  v =  0.0000  0.0000  0.0000  0.0000  0.0000 -0.0000 -0.0000 -0.4839  0.0000  0.8751      0.0000  0.0000  0.0000  0.0000  0.0000  0.0000  0.0000  0.0000  0.0000  0.0000
  o =  0.2007  v =  0.0000  0.0000  0.0000  0.0000  0.0000 -0.0000  0.0000  0.8751 -0.0000  0.4839      0.0000  0.0000  0.0000  0.0000  0.0000  0.0000  0.0000  0.0000  0.0000  0.0000
  o =  0.6689  v =  0.0000  0.0000  0.0000  0.0000  0.0000 -0.0000  0.0000 -0.0000 -1.0000  0.0000      0.0000  0.0000  0.0000  0.0000  0.0000  0.0000  0.0000  0.0000  0.0000  0.0000
  o =  0.7440  v =  0.0000  0.0000  0.0000  0.0000  0.0000 -0.0000  1.0000 -0.0000  0.0000 -0.0000      0.0000  0.0000  0.0000  0.0000  0.0000  0.0000  0.0000  0.0000  0.0000  0.0000
  o =  0.7629  v =  0.0000  0.0000  0.0000  0.0000  0.0000 -1.0000 -0.0000 -0.0000  0.0000 -0.0000      0.0000  0.0000  0.0000  0.0000  0.0000  0.0000  0.0000  0.0000  0.0000  0.0000
  o =  0.7723  v =  1.0000  0.0000  0.0000  0.0000  0.0000  0.0000  0.0000  0.0000  0.0000  0.0000      0.0000  0.0000  0.0000  0.0000  0.0000  0.0000  0.0000  0.0000  0.0000  0.0000
  o =  0.7831  v =  0.0000 -1.0000  0.0000  0.0000  0.0000  0.0000  0.0000  0.0000  0.0000  0.0000      0.0000  0.0000  0.0000  0.0000  0.0000  0.0000  0.0000  0.0000  0.0000  0.0000
  o =  0.8266  v =  0.0000  0.0000 -0.0000  1.0000 -0.0000  0.0000  0.0000  0.0000  0.0000  0.0000      0.0000  0.0000  0.0000  0.0000  0.0000  0.0000  0.0000  0.0000  0.0000  0.0000
  o =  1.1369  v =  0.0000  0.0000  0.8313  0.0000  0.5559  0.0000  0.0000  0.0000  0.0000  0.0000      0.0000  0.0000  0.0000  0.0000  0.0000  0.0000  0.0000  0.0000  0.0000  0.0000
  o =  1.1482  v =  0.0000 -0.0000 -0.5559  0.0000  0.8313  0.0000  0.0000  0.0000  0.0000  0.0000      0.0000  0.0000  0.0000  0.0000  0.0000  0.0000  0.0000  0.0000  0.0000  0.0000
 
atom =   4  type =  1  l = 2
 
 onsite density matrix
 
spin component  1
 
  0.7629  0.0000  0.0000 -0.0000  0.0000
  0.0000  0.7440 -0.0000  0.0000 -0.0000
  0.0000 -0.0000  0.1960 -0.0000  0.0084
 -0.0000  0.0000 -0.0000  0.6689 -0.0000
  0.0000 -0.0000  0.0084 -0.0000  0.1855
 
spin component  2
 
  0.7723  0.0000 -0.0000  0.0000 -0.0000
  0.0000  0.7831  0.0000  0.0000 -0.0000
 -0.0000  0.0000  1.1404  0.0000 -0.0052
  0.0000  0.0000  0.0000  0.8266  0.0000
 -0.0000 -0.0000 -0.0052  0.0000  1.1447
 
 occupancies and eigenvectors
 
  o =  0.1808  v = -0.0000 -0.0000 -0.4839 -0.0000  0.8751  0.0000  0.0000  0.0000  0.0000  0.0000      0.0000  0.0000  0.0000  0.0000  0.0000  0.0000  0.0000  0.0000  0.0000  0.0000
  o =  0.2007  v = -0.0000 -0.0000  0.8751  0.0000  0.4839  0.0000  0.0000  0.0000  0.0000  0.0000      0.0000  0.0000  0.0000  0.0000  0.0000  0.0000  0.0000  0.0000  0.0000  0.0000
  o =  0.6689  v = -0.0000 -0.0000  0.0000 -1.0000 -0.0000  0.0000  0.0000  0.0000  0.0000  0.0000      0.0000  0.0000  0.0000  0.0000  0.0000  0.0000  0.0000  0.0000  0.0000  0.0000
  o =  0.7440  v = -0.0000  1.0000  0.0000 -0.0000  0.0000  0.0000  0.0000  0.0000  0.0000  0.0000      0.0000  0.0000  0.0000  0.0000  0.0000  0.0000  0.0000  0.0000  0.0000  0.0000
  o =  0.7629  v = -1.0000 -0.0000 -0.0000  0.0000 -0.0000  0.0000  0.0000  0.0000  0.0000  0.0000      0.0000  0.0000  0.0000  0.0000  0.0000  0.0000  0.0000  0.0000  0.0000  0.0000
  o =  0.7723  v =  0.0000  0.0000  0.0000  0.0000  0.0000  1.0000  0.0000  0.0000  0.0000  0.0000      0.0000  0.0000  0.0000  0.0000  0.0000  0.0000  0.0000  0.0000  0.0000  0.0000
  o =  0.7831  v =  0.0000  0.0000  0.0000  0.0000  0.0000  0.0000 -1.0000 -0.0000  0.0000 -0.0000      0.0000  0.0000  0.0000  0.0000  0.0000  0.0000  0.0000  0.0000  0.0000  0.0000
  o =  0.8266  v =  0.0000  0.0000  0.0000  0.0000  0.0000  0.0000  0.0000 -0.0000  1.0000  0.0000      0.0000  0.0000  0.0000  0.0000  0.0000  0.0000  0.0000  0.0000  0.0000  0.0000
  o =  1.1369  v =  0.0000  0.0000  0.0000  0.0000  0.0000  0.0000 -0.0000  0.8313 -0.0000  0.5559      0.0000  0.0000  0.0000  0.0000  0.0000  0.0000  0.0000  0.0000  0.0000  0.0000
  o =  1.1482  v =  0.0000  0.0000  0.0000  0.0000  0.0000  0.0000 -0.0000 -0.5559 -0.0000  0.8313      0.0000  0.0000  0.0000  0.0000  0.0000  0.0000  0.0000  0.0000  0.0000  0.0000
 
atom =   5  type =  1  l = 2
 
 onsite density matrix
 
spin component  1
 
  0.4885 -0.0000  0.0000 -0.0000  0.0000
 -0.0000  0.4414 -0.0000 -0.0000  0.0000
  0.0000 -0.0000  0.2207 -0.0000  0.0003
 -0.0000 -0.0000 -0.0000  0.3827 -0.0000
  0.0000  0.0000  0.0003 -0.0000  0.1649
 
spin component  2
 
  0.9361  0.0000 -0.0000  0.0000 -0.0000
  0.0000  0.9636  0.0000  0.0000 -0.0000
 -0.0000  0.0000  1.1082  0.0000 -0.0002
  0.0000  0.0000  0.0000  0.9976  0.0000
 -0.0000 -0.0000 -0.0002  0.0000  1.1573
 
 occupancies and eigenvectors
 
  o =  0.1649  v =  0.0000  0.0000  0.0049  0.0000 -1.0000  0.0000  0.0000  0.0000  0.0000  0.0000      0.0000  0.0000  0.0000  0.0000  0.0000  0.0000  0.0000  0.0000  0.0000  0.0000
  o =  0.2207  v = -0.0000 -0.0000  1.0000 -0.0000  0.0049  0.0000  0.0000  0.0000  0.0000  0.0000      0.0000  0.0000  0.0000  0.0000  0.0000  0.0000  0.0000  0.0000  0.0000  0.0000
  o =  0.3827  v = -0.0000 -0.0000 -0.0000 -1.0000  0.0000  0.0000  0.0000  0.0000  0.0000  0.0000      0.0000  0.0000  0.0000  0.0000  0.0000  0.0000  0.0000  0.0000  0.0000  0.0000
  o =  0.4414  v =  0.0000  1.0000  0.0000 -0.0000  0.0000  0.0000  0.0000  0.0000  0.0000  0.0000      0.0000  0.0000  0.0000  0.0000  0.0000  0.0000  0.0000  0.0000  0.0000  0.0000
  o =  0.4885  v = -1.0000  0.0000 -0.0000  0.0000 -0.0000  0.0000  0.0000  0.0000  0.0000  0.0000      0.0000  0.0000  0.0000  0.0000  0.0000  0.0000  0.0000  0.0000  0.0000  0.0000
  o =  0.9361  v =  0.0000  0.0000  0.0000  0.0000  0.0000  1.0000  0.0000  0.0000  0.0000  0.0000      0.0000  0.0000  0.0000  0.0000  0.0000  0.0000  0.0000  0.0000  0.0000  0.0000
  o =  0.9636  v =  0.0000  0.0000  0.0000  0.0000  0.0000  0.0000  1.0000  0.0000  0.0000  0.0000      0.0000  0.0000  0.0000  0.0000  0.0000  0.0000  0.0000  0.0000  0.0000  0.0000
  o =  0.9976  v =  0.0000  0.0000  0.0000  0.0000  0.0000  0.0000 -0.0000  0.0000  1.0000 -0.0000      0.0000  0.0000  0.0000  0.0000  0.0000  0.0000  0.0000  0.0000  0.0000  0.0000
  o =  1.1082  v =  0.0000  0.0000  0.0000  0.0000  0.0000  0.0000 -0.0000  1.0000 -0.0000  0.0047      0.0000  0.0000  0.0000  0.0000  0.0000  0.0000  0.0000  0.0000  0.0000  0.0000
  o =  1.1573  v =  0.0000  0.0000  0.0000  0.0000  0.0000  0.0000  0.0000  0.0047 -0.0000 -1.0000      0.0000  0.0000  0.0000  0.0000  0.0000  0.0000  0.0000  0.0000  0.0000  0.0000
 
atom =   6  type =  1  l = 2
 
 onsite density matrix
 
spin component  1
 
  0.5321 -0.0000  0.0000 -0.0000  0.0000
 -0.0000  0.4707 -0.0000 -0.0000  0.0000
  0.0000 -0.0000  0.2123 -0.0000  0.0001
 -0.0000 -0.0000 -0.0000  0.3956 -0.0000
  0.0000  0.0000  0.0001 -0.0000  0.1659
 
spin component  2
 
  0.9103  0.0000 -0.0000  0.0000 -0.0000
  0.0000  0.9466  0.0000  0.0000 -0.0000
 -0.0000  0.0000  1.1145  0.0000 -0.0001
  0.0000  0.0000  0.0000  0.9904  0.0000
 -0.0000 -0.0000 -0.0001  0.0000  1.1567
 
 occupancies and eigenvectors
 
  o =  0.1659  v =  0.0000 -0.0000  0.0023  0.0000 -1.0000  0.0000  0.0000  0.0000  0.0000  0.0000      0.0000  0.0000  0.0000  0.0000  0.0000  0.0000  0.0000  0.0000  0.0000  0.0000
  o =  0.2123  v = -0.0000 -0.0000  1.0000 -0.0000  0.0023  0.0000  0.0000  0.0000  0.0000  0.0000      0.0000  0.0000  0.0000  0.0000  0.0000  0.0000  0.0000  0.0000  0.0000  0.0000
  o =  0.3956  v = -0.0000  0.0000 -0.0000 -1.0000 -0.0000  0.0000  0.0000  0.0000  0.0000  0.0000      0.0000  0.0000  0.0000  0.0000  0.0000  0.0000  0.0000  0.0000  0.0000  0.0000
  o =  0.4707  v =  0.0000  1.0000  0.0000  0.0000 -0.0000  0.0000  0.0000  0.0000  0.0000  0.0000      0.0000  0.0000  0.0000  0.0000  0.0000  0.0000  0.0000  0.0000  0.0000  0.0000
  o =  0.5321  v = -1.0000  0.0000 -0.0000  0.0000 -0.0000  0.0000  0.0000  0.0000  0.0000  0.0000      0.0000  0.0000  0.0000  0.0000  0.0000  0.0000  0.0000  0.0000  0.0000  0.0000
  o =  0.9103  v =  0.0000  0.0000  0.0000  0.0000  0.0000  1.0000  0.0000  0.0000  0.0000  0.0000      0.0000  0.0000  0.0000  0.0000  0.0000  0.0000  0.0000  0.0000  0.0000  0.0000
  o =  0.9466  v =  0.0000  0.0000  0.0000  0.0000  0.0000  0.0000  1.0000  0.0000 -0.0000 -0.0000      0.0000  0.0000  0.0000  0.0000  0.0000  0.0000  0.0000  0.0000  0.0000  0.0000
  o =  0.9904  v =  0.0000  0.0000  0.0000  0.0000  0.0000  0.0000  0.0000 -0.0000  1.0000  0.0000      0.0000  0.0000  0.0000  0.0000  0.0000  0.0000  0.0000  0.0000  0.0000  0.0000
  o =  1.1145  v =  0.0000  0.0000  0.0000  0.0000  0.0000  0.0000 -0.0000  1.0000  0.0000  0.0025      0.0000  0.0000  0.0000  0.0000  0.0000  0.0000  0.0000  0.0000  0.0000  0.0000
  o =  1.1567  v =  0.0000  0.0000  0.0000  0.0000  0.0000  0.0000 -0.0000  0.0025  0.0000 -1.0000      0.0000  0.0000  0.0000  0.0000  0.0000  0.0000  0.0000  0.0000  0.0000  0.0000
 
     EDDAV:  cpu time      1.5812: real time      1.5969
       DOS:  cpu time      0.0006: real time      0.0006
    CHARGE:  cpu time      0.1174: real time      0.1187
    MIXING:  cpu time      0.0033: real time      0.0038
    --------------------------------------------
      LOOP:  cpu time      2.0743: real time      2.0941

 eigenvalue-minimisations  :  6578
 total energy-change (2. order) :-0.8990434E+01  (-0.3946824E+02)
 number of electron      89.9999986 magnetization      -0.0000000
 augmentation part       39.4189040 magnetization      -0.0000000

 Broyden mixing:
  rms(total) = 0.77325E+01    rms(broyden)= 0.77323E+01
  rms(prec ) = 0.79937E+01
  weight for this iteration     100.00

 eigenvalues of (default mixing * dielectric matrix)
  average eigenvalue GAMMA=   0.1889
  0.1889

 Free energy of the ion-electron system (eV)
  ---------------------------------------------------
  alpha Z        PSCENC =        86.09644943
  Ewald energy   TEWEN  =     39626.73965434
  -Hartree energ DENC   =    -46515.65696233
  -exchange      EXHF   =         0.00000000
  -V(xc)+E(xc)   XCENC  =       273.16105266
  PAW double counting   =      6774.52728887    -7004.41428132
  entropy T*S    EENTRO =        -0.00369368
  eigenvalues    EBANDS =      -804.09015250
  atomic energy  EATOM  =      7474.36329711
  Solvation  Ediel_sol  =         0.00000000
  ---------------------------------------------------
  free energy    TOTEN  =       -89.27734743 eV

  energy without entropy =      -89.27365375  energy(sigma->0) =      -89.27550059


--------------------------------------------------------------------------------------------------------




--------------------------------------- Iteration      1(   7)  ---------------------------------------


    POTLOK:  cpu time      0.0736: real time      0.0746
    SETDIJ:  cpu time      0.3096: real time      0.3109
atom =   1  type =  1  l = 2
 
 onsite density matrix
 
spin component  1
 
  0.8705  0.0000 -0.0000  0.0000 -0.0000
  0.0000  0.8839  0.0000  0.0000 -0.0000
 -0.0000  0.0000  0.9722  0.0000 -0.0004
  0.0000  0.0000  0.0000  0.8998  0.0000
 -0.0000 -0.0000 -0.0004  0.0000  1.0300
 
spin component  2
 
  0.6075  0.0000  0.0000 -0.0000  0.0000
  0.0000  0.5754 -0.0000  0.0000 -0.0000
  0.0000 -0.0000  0.4095 -0.0000  0.0006
 -0.0000  0.0000 -0.0000  0.5371 -0.0000
  0.0000 -0.0000  0.0006 -0.0000  0.3283
 
 occupancies and eigenvectors
 
  o =  0.3283  v =  0.0000  0.0000  0.0000  0.0000  0.0000  0.0000  0.0000  0.0078 -0.0000 -1.0000      0.0000  0.0000  0.0000  0.0000  0.0000  0.0000  0.0000  0.0000  0.0000  0.0000
  o =  0.4095  v =  0.0000  0.0000  0.0000  0.0000  0.0000  0.0000 -0.0000 -1.0000  0.0000 -0.0078      0.0000  0.0000  0.0000  0.0000  0.0000  0.0000  0.0000  0.0000  0.0000  0.0000
  o =  0.5371  v =  0.0000  0.0000  0.0000  0.0000  0.0000  0.0000  0.0000  0.0000  1.0000 -0.0000      0.0000  0.0000  0.0000  0.0000  0.0000  0.0000  0.0000  0.0000  0.0000  0.0000
  o =  0.5754  v =  0.0000  0.0000  0.0000  0.0000  0.0000  0.0000 -1.0000  0.0000  0.0000 -0.0000      0.0000  0.0000  0.0000  0.0000  0.0000  0.0000  0.0000  0.0000  0.0000  0.0000
  o =  0.6075  v =  0.0000  0.0000  0.0000  0.0000  0.0000  1.0000  0.0000  0.0000  0.0000  0.0000      0.0000  0.0000  0.0000  0.0000  0.0000  0.0000  0.0000  0.0000  0.0000  0.0000
  o =  0.8705  v =  1.0000  0.0000  0.0000  0.0000  0.0000  0.0000  0.0000  0.0000  0.0000  0.0000      0.0000  0.0000  0.0000  0.0000  0.0000  0.0000  0.0000  0.0000  0.0000  0.0000
  o =  0.8839  v =  0.0000  1.0000  0.0000 -0.0000 -0.0000  0.0000  0.0000  0.0000  0.0000  0.0000      0.0000  0.0000  0.0000  0.0000  0.0000  0.0000  0.0000  0.0000  0.0000  0.0000
  o =  0.8998  v =  0.0000  0.0000 -0.0000  1.0000  0.0000  0.0000  0.0000  0.0000  0.0000  0.0000      0.0000  0.0000  0.0000  0.0000  0.0000  0.0000  0.0000  0.0000  0.0000  0.0000
  o =  0.9722  v =  0.0000 -0.0000  1.0000  0.0000  0.0064  0.0000  0.0000  0.0000  0.0000  0.0000      0.0000  0.0000  0.0000  0.0000  0.0000  0.0000  0.0000  0.0000  0.0000  0.0000
  o =  1.0300  v =  0.0000 -0.0000  0.0064  0.0000 -1.0000  0.0000  0.0000  0.0000  0.0000  0.0000      0.0000  0.0000  0.0000  0.0000  0.0000  0.0000  0.0000  0.0000  0.0000  0.0000
 
atom =   2  type =  1  l = 2
 
 onsite density matrix
 
spin component  1
 
  0.8586  0.0000 -0.0000  0.0000 -0.0000
  0.0000  0.8769  0.0000  0.0000 -0.0000
 -0.0000  0.0000  0.9939  0.0000  0.0007
  0.0000  0.0000  0.0000  0.8984  0.0000
 -0.0000 -0.0000  0.0007  0.0000  1.0427
 
spin component  2
 
  0.6347  0.0000  0.0000  0.0000  0.0000
  0.0000  0.5926 -0.0000  0.0000 -0.0000
  0.0000 -0.0000  0.3733 -0.0000 -0.0017
  0.0000  0.0000 -0.0000  0.5420  0.0000
  0.0000 -0.0000 -0.0017  0.0000  0.3033
 
 occupancies and eigenvectors
 
  o =  0.3032  v =  0.0000  0.0000  0.0000  0.0000  0.0000  0.0000 -0.0000 -0.0244  0.0000 -0.9997      0.0000  0.0000  0.0000  0.0000  0.0000  0.0000  0.0000  0.0000  0.0000  0.0000
  o =  0.3733  v =  0.0000  0.0000  0.0000  0.0000  0.0000  0.0000 -0.0000 -0.9997 -0.0000  0.0244      0.0000  0.0000  0.0000  0.0000  0.0000  0.0000  0.0000  0.0000  0.0000  0.0000
  o =  0.5420  v =  0.0000  0.0000  0.0000  0.0000  0.0000  0.0000 -0.0000  0.0000 -1.0000 -0.0000      0.0000  0.0000  0.0000  0.0000  0.0000  0.0000  0.0000  0.0000  0.0000  0.0000
  o =  0.5926  v =  0.0000  0.0000  0.0000  0.0000  0.0000  0.0000  1.0000 -0.0000  0.0000 -0.0000      0.0000  0.0000  0.0000  0.0000  0.0000  0.0000  0.0000  0.0000  0.0000  0.0000
  o =  0.6347  v =  0.0000  0.0000  0.0000  0.0000  0.0000  1.0000  0.0000  0.0000  0.0000  0.0000      0.0000  0.0000  0.0000  0.0000  0.0000  0.0000  0.0000  0.0000  0.0000  0.0000
  o =  0.8586  v =  1.0000  0.0000  0.0000  0.0000  0.0000  0.0000  0.0000  0.0000  0.0000  0.0000      0.0000  0.0000  0.0000  0.0000  0.0000  0.0000  0.0000  0.0000  0.0000  0.0000
  o =  0.8769  v =  0.0000  1.0000 -0.0000 -0.0000 -0.0000  0.0000  0.0000  0.0000  0.0000  0.0000      0.0000  0.0000  0.0000  0.0000  0.0000  0.0000  0.0000  0.0000  0.0000  0.0000
  o =  0.8984  v =  0.0000  0.0000 -0.0000  1.0000  0.0000  0.0000  0.0000  0.0000  0.0000  0.0000      0.0000  0.0000  0.0000  0.0000  0.0000  0.0000  0.0000  0.0000  0.0000  0.0000
  o =  0.9939  v =  0.0000  0.0000  0.9999  0.0000 -0.0135  0.0000  0.0000  0.0000  0.0000  0.0000      0.0000  0.0000  0.0000  0.0000  0.0000  0.0000  0.0000  0.0000  0.0000  0.0000
  o =  1.0427  v =  0.0000 -0.0000 -0.0135  0.0000 -0.9999  0.0000  0.0000  0.0000  0.0000  0.0000      0.0000  0.0000  0.0000  0.0000  0.0000  0.0000  0.0000  0.0000  0.0000  0.0000
 
atom =   3  type =  1  l = 2
 
 onsite density matrix
 
spin component  1
 
  0.8612  0.0000 -0.0000  0.0000 -0.0000
  0.0000  0.8903  0.0000  0.0000 -0.0000
 -0.0000  0.0000  1.0643  0.0000 -0.0031
  0.0000  0.0000  0.0000  0.9388  0.0000
 -0.0000 -0.0000 -0.0031  0.0000  1.0794
 
spin component  2
 
  0.6679  0.0000  0.0000 -0.0000  0.0000
  0.0000  0.6096 -0.0000  0.0000 -0.0000
  0.0000 -0.0000  0.2449 -0.0000  0.0056
 -0.0000  0.0000 -0.0000  0.5164 -0.0000
  0.0000 -0.0000  0.0056 -0.0000  0.2219
 
 occupancies and eigenvectors
 
  o =  0.2206  v =  0.0000  0.0000  0.0000  0.0000  0.0000  0.0000  0.0000  0.2263 -0.0000 -0.9741      0.0000  0.0000  0.0000  0.0000  0.0000  0.0000  0.0000  0.0000  0.0000  0.0000
  o =  0.2462  v =  0.0000  0.0000  0.0000  0.0000  0.0000  0.0000  0.0000  0.9741 -0.0000  0.2263      0.0000  0.0000  0.0000  0.0000  0.0000  0.0000  0.0000  0.0000  0.0000  0.0000
  o =  0.5164  v =  0.0000  0.0000  0.0000  0.0000  0.0000  0.0000  0.0000  0.0000  1.0000 -0.0000      0.0000  0.0000  0.0000  0.0000  0.0000  0.0000  0.0000  0.0000  0.0000  0.0000
  o =  0.6096  v =  0.0000  0.0000  0.0000  0.0000  0.0000  0.0000  1.0000 -0.0000 -0.0000  0.0000      0.0000  0.0000  0.0000  0.0000  0.0000  0.0000  0.0000  0.0000  0.0000  0.0000
[...]
     37      -2.0134      1.00000
     38      -1.9928      1.00000
     39      -1.8638      1.00000
     40      -1.8252      1.00000
     41      -1.6202      1.00000
     42      -1.1931      1.00000
     43      -0.8401      1.00000
     44      -0.8009      1.00000
     45      -0.6277      0.99999
     46       0.3049      0.00000
     47       0.4758      0.00000
     48       0.6959      0.00000
     49       0.7962      0.00000
     50       1.2809      0.00000
     51       1.9512      0.00000
     52       3.2376      0.00000
     53       3.4312      0.00000
     54       3.6683      0.00000
     55       3.7825      0.00000
     56       4.2948      0.00000
     57       4.5626      0.00000
     58       4.8592      0.00000
     59       5.0344      0.00000
     60       5.2706      0.00000
     61       5.4751      0.00000
     62       5.6692      0.00000
     63       5.7060      0.00000
     64       6.1413      0.00000
     65       6.8991      0.00000
     66       6.9941      0.00000
     67       7.0826      0.00000
     68       7.1207      0.00000
     69       7.1473      0.00000
     70       7.1787      0.00000
     71       7.4001      0.00000
     72       7.5052      0.00000
     73       7.5573      0.00000
     74       7.6482      0.00000
     75       7.9188      0.00000
     76       8.0651      0.00000
     77       8.1075      0.00000
     78       8.1724      0.00000


--------------------------------------------------------------------------------------------------------


 soft charge-density along one line, spin component           1
         0         1         2         3         4         5         6         7         8         9
 total charge-density along one line
 
 soft charge-density along one line, spin component           2
         0         1         2         3         4         5         6         7         8         9
 total charge-density along one line
 
 pseudopotential strength for first ion, spin component:           1
 -9.457   0.000  -0.000  -0.000   0.000  -9.831   0.000  -0.000
  0.000  -9.558  -0.000   0.000   0.000   0.000  -9.930  -0.000
 -0.000  -0.000 -10.836   0.000   0.303  -0.000  -0.000 -11.160
 -0.000   0.000   0.000 -11.002   0.000  -0.000   0.000   0.000
  0.000   0.000   0.303   0.000 -10.409   0.000   0.000   0.292
 -9.831   0.000  -0.000  -0.000   0.000 -10.168   0.000  -0.000
  0.000  -9.930  -0.000   0.000   0.000   0.000 -10.264  -0.000
 -0.000  -0.000 -11.160   0.000   0.292  -0.000  -0.000 -11.449
 -0.000   0.000   0.000 -11.318   0.000  -0.000   0.000   0.000
  0.000   0.000   0.292   0.000 -10.752   0.000   0.000   0.281
 -0.000   0.000   0.085  -0.000   0.134  -0.000   0.000   0.084
 -0.000   0.000   0.151  -0.000   0.240  -0.000   0.000   0.147
  0.000  -0.021  -0.000  -0.000  -0.000   0.000  -0.021  -0.000
 -0.000   0.000  -0.017   0.000   0.000  -0.000   0.000  -0.017
  0.000  -0.000  -0.000  -0.021   0.000   0.000  -0.000  -0.000
  0.000  -0.022  -0.000  -0.000  -0.000   0.000  -0.022  -0.000
 -0.000   0.000  -0.012   0.000   0.000  -0.000   0.000  -0.013
  0.000  -0.000  -0.000  -0.022   0.000   0.000  -0.000  -0.000
 pseudopotential strength for first ion, spin component:           2
 -8.300   0.000  -0.000  -0.000   0.000  -8.723   0.000  -0.000
  0.000  -8.415  -0.000   0.000   0.000   0.000  -8.833  -0.000
 -0.000  -0.000  -5.778   0.000   0.507  -0.000  -0.000  -6.193
 -0.000   0.000   0.000  -5.777   0.000  -0.000   0.000   0.000
  0.000   0.000   0.507   0.000  -5.171   0.000   0.000   0.490
 -8.723   0.000  -0.000  -0.000   0.000  -9.107   0.000  -0.000
  0.000  -8.833  -0.000   0.000   0.000   0.000  -9.213  -0.000
 -0.000  -0.000  -6.193   0.000   0.490  -0.000  -0.000  -6.546
 -0.000   0.000   0.000  -6.184   0.000  -0.000   0.000   0.000
  0.000   0.000   0.490   0.000  -5.612   0.000   0.000   0.475
 -0.000   0.000   0.013  -0.000   0.003  -0.000   0.000   0.011
 -0.000   0.000   0.018  -0.000  -0.004  -0.000   0.000   0.013
  0.000  -0.024  -0.000  -0.000  -0.000   0.000  -0.023  -0.000
 -0.000   0.000  -0.039   0.000   0.001  -0.000   0.000  -0.037
  0.000  -0.000  -0.000  -0.022   0.000   0.000  -0.000  -0.000
  0.000  -0.026  -0.000  -0.000  -0.000   0.000  -0.026  -0.000
 -0.000   0.000  -0.044   0.000   0.001  -0.000   0.000  -0.042
  0.000  -0.000  -0.000  -0.025   0.000   0.000  -0.000  -0.000
 total augmentation occupancy for first ion, spin component:           1
  5.417   0.000  -0.000   0.000  -0.000  -2.688  -0.000   0.000  -0.000   0.000   0.000  -0.000  -0.000   0.000  -0.000  -0.000
  0.000   4.933   0.000   0.000  -0.000  -0.000  -2.232  -0.000  -0.000   0.000   0.000   0.000  -0.006  -0.000  -0.000  -0.025
 -0.000   0.000   5.700   0.000  -0.206   0.000  -0.000  -4.115  -0.000   0.134   0.324   0.075  -0.000  -0.423  -0.000   0.000
  0.000   0.000   0.000   3.802   0.000  -0.000  -0.000  -0.000  -2.128  -0.000   0.000   0.000  -0.000  -0.000  -0.014  -0.000
 -0.000  -0.000  -0.206   0.000   8.594   0.000   0.000   0.164  -0.000  -6.923  -0.189   0.090  -0.000  -0.017  -0.000   0.000
 -2.688  -0.000   0.000  -0.000   0.000   2.031   0.000  -0.000   0.000  -0.000   0.000   0.000   0.000  -0.000   0.000  -0.000
 -0.000  -2.232  -0.000  -0.000   0.000   0.000   1.602   0.000   0.000  -0.000  -0.000   0.000   0.033   0.000   0.000  -0.001
  0.000  -0.000  -4.115  -0.000   0.164  -0.000   0.000   3.674   0.000  -0.117  -0.457   0.015   0.000   0.464   0.000  -0.000
 -0.000  -0.000  -0.000  -2.128  -0.000   0.000   0.000   0.000   1.545   0.000  -0.000   0.000   0.000   0.000   0.034  -0.000
  0.000   0.000   0.134  -0.000  -6.923  -0.000  -0.000  -0.117   0.000   6.435   0.090  -0.032  -0.000   0.014   0.000  -0.000
 -0.000   0.000   0.324   0.000  -0.189   0.000  -0.000  -0.457  -0.000   0.090   1.497  -0.226   0.000   0.128   0.000  -0.000
 -0.000   0.000   0.075   0.000   0.090   0.000   0.000   0.015   0.000  -0.032  -0.226   0.060  -0.000  -0.028  -0.000   0.000
 -0.000  -0.006  -0.000  -0.000  -0.000   0.000   0.033   0.000   0.000  -0.000   0.000  -0.000   0.245   0.000   0.000  -0.037
  0.000  -0.000  -0.423  -0.000  -0.017  -0.000   0.000   0.464   0.000   0.014   0.128  -0.028   0.000   0.148   0.000  -0.000
 -0.000  -0.000  -0.000  -0.014  -0.000   0.000   0.000   0.000   0.034   0.000   0.000  -0.000   0.000   0.000   0.243  -0.000
 -0.000  -0.025   0.000  -0.000   0.000  -0.000  -0.001  -0.000  -0.000  -0.000  -0.000   0.000  -0.037  -0.000  -0.000   0.007
  0.000  -0.000  -0.010  -0.000   0.001   0.000  -0.000  -0.030  -0.000  -0.001  -0.029   0.004  -0.000  -0.019  -0.000   0.000
 -0.000  -0.000  -0.000  -0.015  -0.000  -0.000  -0.000  -0.000  -0.001  -0.000  -0.000   0.000  -0.000  -0.000  -0.033   0.000
 total augmentation occupancy for first ion, spin component:           2
  0.814   0.000  -0.000   0.000  -0.000  -0.536  -0.000   0.000  -0.000   0.000   0.000  -0.000   0.000   0.000   0.000  -0.000
  0.000   0.692   0.000   0.000  -0.000  -0.000  -0.447  -0.000  -0.000   0.000  -0.000   0.000   0.004  -0.000   0.000  -0.005
 -0.000   0.000   4.590   0.000  -0.352   0.000  -0.000  -2.628  -0.000   0.301  -0.047   0.159  -0.000  -0.165  -0.000  -0.000
  0.000   0.000   0.000   3.518   0.000  -0.000  -0.000  -0.000  -1.702  -0.000  -0.000   0.000   0.000  -0.000   0.026  -0.000
 -0.000  -0.000  -0.352   0.000   6.663   0.000   0.000   0.286  -0.000  -4.382  -0.241   0.121   0.000   0.004   0.000   0.000
 -0.536  -0.000   0.000  -0.000   0.000   0.267   0.000  -0.000   0.000  -0.000  -0.000   0.000  -0.000  -0.000  -0.000   0.000
 -0.000  -0.447  -0.000  -0.000   0.000   0.000   0.209   0.000   0.000  -0.000   0.000  -0.000  -0.003   0.000  -0.000   0.003
  0.000  -0.000  -2.628  -0.000   0.286  -0.000   0.000   1.605   0.000  -0.214   0.036  -0.091   0.000   0.113   0.000   0.000
 -0.000  -0.000  -0.000  -1.702  -0.000   0.000   0.000   0.000   0.887   0.000   0.000  -0.000  -0.000   0.000  -0.016   0.000
  0.000   0.000   0.301  -0.000  -4.382  -0.000  -0.000  -0.214   0.000   3.033   0.171  -0.074  -0.000  -0.003  -0.000  -0.000
  0.000  -0.000  -0.047  -0.000  -0.241  -0.000   0.000   0.036   0.000   0.171  -0.066   0.051  -0.000  -0.011  -0.000   0.000
 -0.000   0.000   0.159   0.000   0.121   0.000  -0.000  -0.091  -0.000  -0.074   0.051  -0.001  -0.000  -0.001  -0.000  -0.000
  0.000   0.004  -0.000   0.000   0.000  -0.000  -0.003   0.000  -0.000  -0.000  -0.000  -0.000   0.002   0.000   0.000   0.004
  0.000  -0.000  -0.165  -0.000   0.004  -0.000   0.000   0.113   0.000  -0.003  -0.011  -0.001   0.000   0.009   0.000   0.000
  0.000   0.000  -0.000   0.026   0.000  -0.000  -0.000   0.000  -0.016  -0.000  -0.000  -0.000   0.000   0.000   0.004   0.000
 -0.000  -0.005  -0.000  -0.000   0.000   0.000   0.003   0.000   0.000  -0.000   0.000  -0.000   0.004   0.000   0.000  -0.001
  0.000  -0.000  -0.056  -0.000  -0.001  -0.000   0.000   0.031   0.000  -0.000   0.003  -0.003   0.000   0.004   0.000   0.000
 -0.000  -0.000  -0.000  -0.023  -0.000   0.000   0.000   0.000   0.010   0.000   0.000  -0.000   0.000   0.000   0.004  -0.000


------------------------ aborting loop because EDIFF is reached ----------------------------------------





 total charge

# of ion       s       p       d       tot
------------------------------------------
    1        0.295   0.320   7.082   7.698
    2        0.298   0.329   7.092   7.719
    3        0.308   0.373   7.145   7.826
    4        0.308   0.373   7.145   7.826
    5        0.295   0.320   7.082   7.698
    6        0.298   0.329   7.092   7.719
    7        1.548   3.465   0.000   5.013
    8        1.549   3.416   0.000   4.964
    9        1.549   3.414   0.000   4.963
   10        1.549   3.416   0.000   4.964
   11        1.549   3.414   0.000   4.963
   12        1.548   3.465   0.000   5.013
--------------------------------------------------
tot         11.094  22.632  42.638  76.364



 magnetization (x)

# of ion       s       p       d       tot
------------------------------------------
    1        0.033   0.026   2.672   2.730
    2        0.031   0.027   2.670   2.728
    3        0.022   0.019   2.662   2.703
    4       -0.022  -0.019  -2.662  -2.703
    5       -0.033  -0.026  -2.672  -2.730
    6       -0.031  -0.027  -2.670  -2.728
    7        0.011   0.135   0.000   0.146
    8        0.005   0.093   0.000   0.098
    9        0.005   0.098   0.000   0.103
   10       -0.005  -0.093   0.000  -0.098
   11       -0.005  -0.098   0.000  -0.103
   12       -0.011  -0.135   0.000  -0.146
--------------------------------------------------
tot          0.000   0.000   0.000   0.000
 
    CHARGE:  cpu time      0.1153: real time      0.1167
    FORLOC:  cpu time      0.0033: real time      0.0034
    FORNL :  cpu time      0.1832: real time      0.1861
    STRESS:  cpu time      1.1013: real time      1.1105
    FORCOR:  cpu time      0.0641: real time      0.0646
    FORHAR:  cpu time      0.0087: real time      0.0088
    MIXING:  cpu time      0.0064: real time      0.0066
    OFIELD:  cpu time      0.0000: real time      0.0000

 ---------------------------------------------------------------------------------------------

         DFTD3 V3.0 Rev 1        
 DF pbe       
 parameters
 k1-k3        =   16.0000    1.3333   -4.0000
 Edisp (eV)   -2.10701

 E6    (eV) :    -1.2581
 E8    (eV) :    -0.8489
 % E8        : 40.29
    FORVDW:  cpu time      0.0306: real time      0.0355

  FORCE on cell =-STRESS in cart. coord.  units (eV):
  Direction    XX          YY          ZZ          XY          YZ          ZX
  --------------------------------------------------------------------------------------
  Alpha Z    86.09645    86.09645    86.09645
  Ewald   44081.80628 44081.80628-48536.88142    -0.00000     0.00000     0.00000
  Hartree 45744.05988 45800.51578-44865.59987    -0.00004     0.00001    -0.00005
  E(xc)    -454.66572  -460.15645  -456.28203     0.00000    -0.00000     0.00000
  Local  -91444.99712-91628.31195 91785.62557     0.00009    -0.00002     0.00009
  n-local  -178.66239  -195.02609  -182.91343     0.15234    -0.00000     0.00000
  augment   960.99818  1053.77804   955.89927     0.00008     0.00010     0.00007
  Kinetic  1196.58478  1262.99141  1213.05255    -1.91520     0.00000     0.00000
  Fock        0.00000     0.00000     0.00000     0.00000     0.00000     0.00000
  vdW        -1.16337    -1.16337    -0.14172    -0.00000    -0.00000     0.00000
  -------------------------------------------------------------------------------------
  Total      -9.94305     0.53011    -1.14464     0.00000    -0.00000    -0.00000
  in kB     -36.16937     1.92836    -4.16380     0.00000    -0.00000    -0.00000
  external pressure =      -12.80 kB  Pullay stress =        0.00 kB


 VOLUME and BASIS-vectors are now :
 -----------------------------------------------------------------------------
  energy-cutoff  :      600.00
  volume of cell :      440.44
      direct lattice vectors                 reciprocal lattice vectors
     4.260000000  0.000000000  0.000000000     0.234741784 -0.000000000 -0.000000000
     0.000000000  4.260000000  0.000000000     0.000000000  0.234741784 -0.000000000
     0.000000000  0.000000000 24.270000963     0.000000000  0.000000000  0.041203130

  length of vectors
     4.260000000  4.260000000 24.270000963     0.234741784  0.234741784  0.041203130


 FORCES acting on ions
    electron-ion (+dipol)            ewald-force                    non-local-force                 convergence-correction
 -----------------------------------------------------------------------------------------------
   -.102E-02 0.122E-02 0.199E+04   0.120E-04 -.292E-02 -.198E+04   -.734E-16 -.734E-16 -.357E+01   0.697E-10 -.318E-08 0.823E-04
   -.101E-02 0.122E-02 -.197E+04   0.127E-04 -.295E-02 0.197E+04   0.702E-16 0.702E-16 0.341E+01   -.193E-10 -.314E-08 -.123E-03
   -.127E-02 0.133E-02 0.280E-01   -.421E-05 -.336E-02 0.107E+00   -.269E-17 -.270E-17 -.131E+00   -.412E-09 -.396E-08 -.540E-04
   -.947E-03 -.800E-03 0.280E-01   0.421E-05 0.336E-02 0.107E+00   -.270E-17 -.271E-17 -.131E+00   0.174E-09 0.401E-08 -.540E-04
   -.132E-02 -.674E-03 0.199E+04   -.120E-04 0.292E-02 -.198E+04   -.734E-16 -.734E-16 -.357E+01   -.449E-09 0.324E-08 0.823E-04
   -.131E-02 -.681E-03 -.197E+04   -.127E-04 0.295E-02 0.197E+04   0.702E-16 0.702E-16 0.341E+01   -.508E-09 0.325E-08 -.123E-03
   0.322E-02 -.341E-02 0.475E+01   -.749E-04 -.249E-02 -.538E+01   0.881E-17 0.887E-17 0.428E+00   0.467E-09 -.294E-08 -.347E-04
   0.172E-02 -.345E-02 0.133E+04   0.469E-04 -.228E-02 -.134E+04   0.115E-15 0.116E-15 0.561E+01   -.109E-09 -.232E-08 0.738E-04
   0.172E-02 -.345E-02 -.135E+04   0.466E-04 -.227E-02 0.136E+04   -.146E-15 -.146E-15 -.710E+01   0.145E-09 -.308E-08 -.878E-04
   0.320E-02 0.276E-02 0.133E+04   -.469E-04 0.228E-02 -.134E+04   0.115E-15 0.116E-15 0.561E+01   0.214E-09 0.231E-08 0.738E-04
   0.320E-02 0.276E-02 -.135E+04   -.466E-04 0.227E-02 0.136E+04   -.146E-15 -.146E-15 -.710E+01   0.632E-09 0.296E-08 -.878E-04
   0.168E-02 0.273E-02 0.475E+01   0.749E-04 0.249E-02 -.538E+01   0.879E-17 0.885E-17 0.428E+00   -.444E-10 0.289E-08 -.347E-04
 -----------------------------------------------------------------------------------------------
   0.786E-02 -.453E-03 0.271E+01   0.807E-14 -.240E-13 -.398E-12   -.560E-16 -.558E-16 -.271E+01   0.160E-09 0.307E-10 -.286E-03
 
 
 POSITION                                       TOTAL-FORCE (eV/Angst)
 -----------------------------------------------------------------------------------
      4.25761      4.25761     12.13000         0.000000      0.000000      0.419239
      4.25761      4.25761     16.34324         0.000000      0.000000      0.000065
      2.12761      4.25761     14.26000        -0.000000     -0.000000     -0.003357
      4.25761      2.12760     14.26000        -0.000000     -0.000000     -0.003357
      2.12761      2.12760     12.13000         0.000000      0.000000      0.419239
      2.12761      2.12760     16.34324        -0.000000      0.000000      0.000065
      4.25761      4.25761     14.26000        -0.000000     -0.000000     -0.197460
      2.12761      4.25761     12.13000        -0.000000     -0.000000     -0.217667
      2.12761      4.25761     16.39217        -0.000000      0.000000     -0.000821
      4.25761      2.12760     12.13000        -0.000000     -0.000000     -0.217667
      4.25761      2.12760     16.39217        -0.000000      0.000000     -0.000821
      2.12761      2.12760     14.26000        -0.000000     -0.000000     -0.197460
 -----------------------------------------------------------------------------------
    total drift:                                0.007864     -0.000453     -0.000518


--------------------------------------------------------------------------------------------------------



  FREE ENERGIE OF THE ION-ELECTRON SYSTEM (eV)
  ---------------------------------------------------
  free  energy   TOTEN  =       -72.08163454 eV

  energy  without entropy=      -72.08163440  energy(sigma->0) =      -72.08163447
 


--------------------------------------------------------------------------------------------------------


    POTLOK:  cpu time      0.3766: real time      0.3786


--------------------------------------------------------------------------------------------------------


 writing wavefunctions
     LOOP+:  cpu time    118.1474: real time    119.6633
    4ORBIT:  cpu time      0.0000: real time      0.0000



 total charge

# of ion       s       p       d       tot
------------------------------------------
    1        0.295   0.320   7.082   7.698
    2        0.298   0.329   7.092   7.719
    3        0.308   0.373   7.145   7.826
    4        0.308   0.373   7.145   7.826
    5        0.295   0.320   7.082   7.698
    6        0.298   0.329   7.092   7.719
    7        1.548   3.465   0.000   5.013
    8        1.549   3.416   0.000   4.964
    9        1.549   3.414   0.000   4.963
   10        1.549   3.416   0.000   4.964
   11        1.549   3.414   0.000   4.963
   12        1.548   3.465   0.000   5.013
--------------------------------------------------
tot         11.094  22.632  42.638  76.364



 magnetization (x)

# of ion       s       p       d       tot
------------------------------------------
    1        0.033   0.026   2.672   2.730
    2        0.031   0.027   2.670   2.728
    3        0.022   0.019   2.662   2.703
    4       -0.022  -0.019  -2.662  -2.703
    5       -0.033  -0.026  -2.672  -2.730
    6       -0.031  -0.027  -2.670  -2.728
    7        0.011   0.135   0.000   0.146
    8        0.005   0.093   0.000   0.098
    9        0.005   0.098   0.000   0.103
   10       -0.005  -0.093   0.000  -0.098
   11       -0.005  -0.098   0.000  -0.103
   12       -0.011  -0.135   0.000  -0.146
--------------------------------------------------
tot          0.000   0.000   0.000   0.000
 

 total amount of memory used by VASP MPI-rank0   155203. kBytes
=======================================================================

   base      :      30000. kBytes
   nonl-proj :      70886. kBytes
   fftplans  :       3857. kBytes
   grid      :      27164. kBytes
   one-center:        373. kBytes
   wavefun   :      22923. kBytes
 
  
  
 General timing and accounting informations for this job:
 ========================================================
  
                  Total CPU time used (sec):      127.443
                            User time (sec):      123.994
                          System time (sec):        3.449
                         Elapsed time (sec):      130.242
  
                   Maximum memory used (kb):      487580.
                   Average memory used (kb):          N/A
  
                          Minor page faults:       155856
                          Major page faults:          890
                 Voluntary context switches:        10605
