    #         X           Y           Z       CHARGE      MIN DIST   ATOMIC VOL
 --------------------------------------------------------------------------------
    1    4.257606    4.257606    0.000000    7.750083     0.984491   106.206753
    2    4.257606    8.517602    0.000000    7.750084     0.984491   106.206753
    3    4.257606   12.777611    0.000000    7.750079     0.984491   106.206753
    4    8.517602    4.257606    0.000000    7.750077     0.984491   106.206753
    5    8.517602    8.517602    0.000000    7.750078     0.984491   106.206753
    6    8.517602   12.777611    0.000000    7.750073     0.984491   106.206753
    7   12.777611    4.257606    0.000000    7.750077     0.984491   106.206537
    8   12.777611    8.517602    0.000000    7.750077     0.984491   106.206537
    9   12.777611   12.777611    0.000000    7.750073     0.984491   106.206537
   10    4.257606    4.257606    4.216708    7.750688     0.955607   105.156252
   11    4.257606    8.517602    4.216708    7.750689     0.955607   105.156252
   12    4.257606   12.777611    4.216708    7.750684     0.955607   105.156468
   13    8.517602    4.257606    4.216708    7.750682     0.955607   105.156037
   14    8.517602    8.517602    4.216708    7.750683     0.955607   105.156037
   15    8.517602   12.777611    4.216708    7.750678     0.955607   105.156037
   16   12.777611    4.257606    4.216708    7.750682     0.955607   105.156468
   17   12.777611    8.517602    4.216708    7.750682     0.955607   105.156468
   18   12.777611   12.777611    4.216708    7.750678     0.955607   105.156468
   19    2.127602    4.257606    2.129993    7.771336     1.003715     8.887360
   20    2.127602    8.517602    2.129993    7.771337     1.003715     8.887360
   21    2.127602   12.777611    2.129993    7.771333     1.003715     8.887360
   22    6.387611    4.257606    2.129993    7.771336     1.003719     8.887360
   23    6.387611    8.517602    2.129993    7.771337     1.003715     8.887360
   24    6.387611   12.777611    2.129993    7.771333     1.003723     8.887360
   25   10.647607    4.257606    2.129993    7.771342     1.003719     8.887360
   26   10.647607    8.517602    2.129993    7.771342     1.003715     8.887360
   27   10.647607   12.777611    2.129993    7.771338     1.003719     8.887360
   28    4.257606    2.127602    2.129993    7.771338     1.003715     8.887360
   29    4.257606    6.387611    2.129993    7.771342     1.003719     8.887360
   30    4.257606   10.647607    2.129993    7.771342     1.003719     8.887360
   31    8.517602    2.127602    2.129993    7.771333     1.003715     8.887360
   32    8.517602    6.387611    2.129993    7.771337     1.003715     8.887360
   33    8.517602   10.647607    2.129993    7.771336     1.003715     8.887360
   34   12.777611    2.127602    2.129993    7.771333     1.003715     8.887360
   35   12.777611    6.387611    2.129993    7.771337     1.003723     8.887360
   36   12.777611   10.647607    2.129993    7.771336     1.003719     8.887360
   37    2.127602    2.127602    0.000000    7.750074     0.984491   106.206537
   38    2.127602    6.387611    0.000000    7.750078     0.984491   106.206537
   39    2.127602   10.647607    0.000000    7.750077     0.984491   106.206537
   40    6.387611    2.127602    0.000000    7.750074     0.984491   106.206537
   41    6.387611    6.387611    0.000000    7.750078     0.984491   106.206537
   42    6.387611   10.647607    0.000000    7.750077     0.984491   106.206537
   43   10.647607    2.127602    0.000000    7.750079     0.984491   106.206753
   44   10.647607    6.387611    0.000000    7.750084     0.984491   106.206753
   45   10.647607   10.647607    0.000000    7.750082     0.984491   106.206753
   46    2.127602    2.127602    4.216708    7.750678     0.955607   105.157545
   47    2.127602    6.387611    4.216708    7.750683     0.955607   105.157545
   48    2.127602   10.647607    4.216708    7.750682     0.955607   105.157545
   49    6.387611    2.127602    4.216708    7.750678     0.955607   105.157760
   50    6.387611    6.387611    4.216708    7.750683     0.955607   105.157760
   51    6.387611   10.647607    4.216708    7.750682     0.955607   105.157545
   52   10.647607    2.127602    4.216708    7.750684     0.955607   105.157545
   53   10.647607    6.387611    4.216708    7.750689     0.955607   105.157545
   54   10.647607   10.647607    4.216708    7.750687     0.955607   105.157545
   55    4.257606    4.257606    2.129993    7.270250     1.062870    10.475496
   56    4.257606    8.517615    2.129993    7.270248     1.062870    10.475496
   57    4.257606   12.777611    2.129993    7.270244     1.062870    10.475496
   58    8.517602    4.257606    2.129993    7.270243     1.062866    10.475496
   59    8.517602    8.517615    2.129993    7.270241     1.062866    10.475496
   60    8.517602   12.777611    2.129993    7.270237     1.062866    10.475496
   61   12.777611    4.257606    2.129993    7.270243     1.062870    10.475496
   62   12.777611    8.517615    2.129993    7.270241     1.062874    10.475496
   63   12.777611   12.777611    2.129993    7.270237     1.062874    10.475496
   64    2.127602    4.257606    0.000000    7.227406     1.046021   134.243078
   65    2.127602    8.517615    0.000000    7.227404     1.046021   134.243078
   66    2.127602   12.777611    0.000000    7.227400     1.046021   134.243078
   67    6.387611    4.257606    0.000000    7.227406     1.046021   134.243078
   68    6.387611    8.517615    0.000000    7.227404     1.046021   134.243078
   69    6.387611   12.777611    0.000000    7.227400     1.046021   134.243078
   70   10.647607    4.257606    0.000000    7.227413     1.046021   134.243294
   71   10.647607    8.517615    0.000000    7.227411     1.046021   134.243294
   72   10.647607   12.777611    0.000000    7.227407     1.046021   134.243294
   73    2.127602    4.257606    4.260979    7.230255     1.061407   135.281086
   74    2.127602    8.517615    4.260979    7.230253     1.061407   135.280224
   75    2.127602   12.777611    4.260979    7.230249     1.061407   135.281086
   76    6.387611    4.257606    4.260979    7.230255     1.061407   135.280655
   77    6.387611    8.517615    4.260979    7.230253     1.061407   135.280655
   78    6.387611   12.777611    4.260979    7.230249     1.061407   135.280655
   79   10.647607    4.257606    4.260979    7.230262     1.061407   135.281086
   80   10.647607    8.517615    4.260979    7.230260     1.061407   135.280224
   81   10.647607   12.777611    4.260979    7.230256     1.061407   135.281086
   82    4.257606    2.127602    0.000000    7.227407     1.046021   134.243294
   83    4.257606    6.387598    0.000000    7.227411     1.046021   134.243294
   84    4.257606   10.647607    0.000000    7.227413     1.046021   134.243294
   85    8.517602    2.127602    0.000000    7.227400     1.046021   134.243294
   86    8.517602    6.387598    0.000000    7.227404     1.046021   134.243294
   87    8.517602   10.647607    0.000000    7.227405     1.046021   134.243294
   88   12.777611    2.127602    0.000000    7.227400     1.046021   134.243078
   89   12.777611    6.387598    0.000000    7.227404     1.046021   134.243078
   90   12.777611   10.647607    0.000000    7.227405     1.046021   134.243078
   91    4.257606    2.127602    4.260979    7.230257     1.061407   135.278286
   92    4.257606    6.387598    4.260979    7.230261     1.061407   135.279147
   93    4.257606   10.647607    4.260979    7.230262     1.061407   135.278286
   94    8.517602    2.127602    4.260979    7.230249     1.061407   135.279147
   95    8.517602    6.387598    4.260979    7.230253     1.061407   135.279147
   96    8.517602   10.647607    4.260979    7.230254     1.061407   135.279147
   97   12.777611    2.127602    4.260979    7.230249     1.061407   135.278286
   98   12.777611    6.387598    4.260979    7.230253     1.061407   135.279147
   99   12.777611   10.647607    4.260979    7.230254     1.061407   135.278286
  100    2.127602    2.127602    2.129993    7.270237     1.062866    10.475496
  101    2.127602    6.387598    2.129993    7.270241     1.062861    10.475496
  102    2.127602   10.647607    2.129993    7.270242     1.062866    10.475496
  103    6.387611    2.127602    2.129993    7.270237     1.062866    10.475496
  104    6.387611    6.387598    2.129993    7.270241     1.062861    10.475496
  105    6.387611   10.647607    2.129993    7.270242     1.062870    10.475496
  106   10.647607    2.127602    2.129993    7.270244     1.062866    10.475496
  107   10.647607    6.387598    2.129993    7.270248     1.062861    10.475496
  108   10.647607   10.647607    2.129993    7.270249     1.062870    10.475496
 --------------------------------------------------------------------------------
    VACUUM CHARGE:               0.0000
    VACUUM VOLUME:               0.0000
    NUMBER OF ELECTRONS:       810.0000
