    #         X           Y           Z       CHARGE      MIN DIST   ATOMIC VOL
 --------------------------------------------------------------------------------
    1    4.257606    4.257606    0.000000    7.760655     0.998472    86.767718
    2    4.257606    8.517602    0.000000    7.760656     0.998472    86.767718
    3    4.257606   12.777611    0.000000    7.760652     0.998472    86.767718
    4    8.517602    4.257606    0.000000    7.760650     0.998472    86.767718
    5    8.517602    8.517602    0.000000    7.760651     0.998472    86.767718
    6    8.517602   12.777611    0.000000    7.760647     0.998472    86.767718
    7   12.777611    4.257606    0.000000    7.760650     0.998472    86.767718
    8   12.777611    8.517602    0.000000    7.760651     0.998472    86.767718
    9   12.777611   12.777611    0.000000    7.760647     0.998472    86.767718
   10    4.257606    4.257606    4.216681    7.753591     0.971673    83.672171
   11    4.257606    8.517602    4.216681    7.753591     0.971673    83.672171
   12    4.257606   12.777611    4.216681    7.753587     0.971673    83.671079
   13    8.517602    4.257606    4.216681    7.753586     0.971673    83.672171
   14    8.517602    8.517602    4.216681    7.753586     0.971673    83.672171
   15    8.517602   12.777611    4.216681    7.753582     0.971673    83.672171
   16   12.777611    4.257606    4.216681    7.753586     0.971673    83.671079
   17   12.777611    8.517602    4.216681    7.753586     0.971673    83.672171
   18   12.777611   12.777611    4.216681    7.753582     0.971673    83.671079
   19    2.127602    4.257606    2.129997    7.755339     0.990214     8.814990
   20    2.127602    8.517602    2.129997    7.755339     0.990214     8.814990
   21    2.127602   12.777611    2.129997    7.755336     0.990214     8.814990
   22    6.387611    4.257606    2.129997    7.755339     0.990214     8.814990
   23    6.387611    8.517602    2.129997    7.755339     0.990214     8.814990
   24    6.387611   12.777611    2.129997    7.755336     0.990214     8.814990
   25   10.647607    4.257606    2.129997    7.755343     0.990214     8.814990
   26   10.647607    8.517602    2.129997    7.755344     0.990214     8.814990
   27   10.647607   12.777611    2.129997    7.755340     0.990214     8.814990
   28    4.257606    2.127602    2.129997    7.755340     0.990214     8.814990
   29    4.257606    6.387611    2.129997    7.755344     0.990214     8.814990
   30    4.257606   10.647607    2.129997    7.755343     0.990214     8.814990
   31    8.517602    2.127602    2.129997    7.755336     0.990214     8.814990
   32    8.517602    6.387611    2.129997    7.755339     0.990214     8.814990
   33    8.517602   10.647607    2.129997    7.755338     0.990214     8.814990
   34   12.777611    2.127602    2.129997    7.755336     0.990214     8.814990
   35   12.777611    6.387611    2.129997    7.755339     0.990214     8.814990
   36   12.777611   10.647607    2.129997    7.755338     0.990214     8.814990
   37    2.127602    2.127602    0.000000    7.760647     0.998472    86.768810
   38    2.127602    6.387611    0.000000    7.760651     0.998472    86.768810
   39    2.127602   10.647607    0.000000    7.760650     0.998472    86.768810
   40    6.387611    2.127602    0.000000    7.760647     0.998472    86.768810
   41    6.387611    6.387611    0.000000    7.760651     0.998472    86.768592
   42    6.387611   10.647607    0.000000    7.760650     0.998472    86.768592
   43   10.647607    2.127602    0.000000    7.760652     0.998472    86.768810
   44   10.647607    6.387611    0.000000    7.760656     0.998472    86.768592
   45   10.647607   10.647607    0.000000    7.760655     0.998472    86.768810
   46    2.127602    2.127602    4.216681    7.753582     0.971673    83.672171
   47    2.127602    6.387611    4.216681    7.753586     0.971673    83.672171
   48    2.127602   10.647607    4.216681    7.753585     0.971673    83.672171
   49    6.387611    2.127602    4.216681    7.753582     0.971673    83.672171
   50    6.387611    6.387611    4.216681    7.753586     0.971673    83.672171
   51    6.387611   10.647607    4.216681    7.753585     0.971673    83.672171
   52   10.647607    2.127602    4.216681    7.753587     0.971673    83.672171
   53   10.647607    6.387611    4.216681    7.753591     0.971673    83.672171
   54   10.647607   10.647607    4.216681    7.753590     0.971673    83.672171
   55    4.257606    4.257606    2.129997    7.257121     1.052618    10.415193
   56    4.257606    8.517615    2.129997    7.257120     1.052618    10.415193
   57    4.257606   12.777611    2.129997    7.257116     1.052618    10.415193
   58    8.517602    4.257606    2.129997    7.257115     1.052618    10.415193
   59    8.517602    8.517615    2.129997    7.257114     1.052618    10.415193
   60    8.517602   12.777611    2.129997    7.257110     1.052618    10.415193
   61   12.777611    4.257606    2.129997    7.257115     1.052618    10.415193
   62   12.777611    8.517615    2.129997    7.257114     1.052618    10.415193
   63   12.777611   12.777611    2.129997    7.257110     1.052618    10.415193
   64    2.127602    4.257606    0.000000    7.234014     1.060875   107.523392
   65    2.127602    8.517615    0.000000    7.234013     1.060875   107.523392
   66    2.127602   12.777611    0.000000    7.234009     1.060875   107.523392
   67    6.387611    4.257606    0.000000    7.234014     1.060875   107.523610
   68    6.387611    8.517615    0.000000    7.234013     1.060875   107.523610
   69    6.387611   12.777611    0.000000    7.234009     1.060875   107.523392
   70   10.647607    4.257606    0.000000    7.234020     1.060875   107.523610
   71   10.647607    8.517615    0.000000    7.234019     1.060875   107.523392
   72   10.647607   12.777611    0.000000    7.234015     1.060875   107.523392
   73    2.127602    4.257606    4.260983    7.239294     1.062749   110.501190
   74    2.127602    8.517615    4.260983    7.239293     1.062749   110.500098
   75    2.127602   12.777611    4.260983    7.239289     1.062749   110.501190
   76    6.387611    4.257606    4.260983    7.239294     1.062753   110.500098
   77    6.387611    8.517615    4.260983    7.239293     1.062757   110.500098
   78    6.387611   12.777611    4.260983    7.239289     1.062757   110.501190
   79   10.647607    4.257606    4.260983    7.239300     1.062753   110.500098
   80   10.647607    8.517615    4.260983    7.239299     1.062753   110.500098
   81   10.647607   12.777611    4.260983    7.239295     1.062753   110.500098
   82    4.257606    2.127602    0.000000    7.234016     1.060875   107.524266
   83    4.257606    6.387598    0.000000    7.234019     1.060875   107.524266
   84    4.257606   10.647607    0.000000    7.234020     1.060875   107.524266
   85    8.517602    2.127602    0.000000    7.234009     1.060875   107.524047
   86    8.517602    6.387598    0.000000    7.234013     1.060875   107.524047
   87    8.517602   10.647607    0.000000    7.234014     1.060875   107.524266
   88   12.777611    2.127602    0.000000    7.234009     1.060875   107.524266
   89   12.777611    6.387598    0.000000    7.234013     1.060875   107.524266
   90   12.777611   10.647607    0.000000    7.234014     1.060875   107.524266
   91    4.257606    2.127602    4.260983    7.239296     1.062749   110.500316
   92    4.257606    6.387598    4.260983    7.239299     1.062744   110.500316
   93    4.257606   10.647607    4.260983    7.239300     1.062753   110.500316
   94    8.517602    2.127602    4.260983    7.239289     1.062749   110.500535
   95    8.517602    6.387598    4.260983    7.239293     1.062744   110.500535
   96    8.517602   10.647607    4.260983    7.239294     1.062749   110.500316
   97   12.777611    2.127602    4.260983    7.239289     1.062749   110.500316
   98   12.777611    6.387598    4.260983    7.239293     1.062744   110.500316
   99   12.777611   10.647607    4.260983    7.239294     1.062753   110.500316
  100    2.127602    2.127602    2.129997    7.257111     1.052618    10.415193
  101    2.127602    6.387598    2.129997    7.257115     1.052618    10.415193
  102    2.127602   10.647607    2.129997    7.257115     1.052618    10.415193
  103    6.387611    2.127602    2.129997    7.257111     1.052618    10.415193
  104    6.387611    6.387598    2.129997    7.257115     1.052618    10.415193
  105    6.387611   10.647607    2.129997    7.257115     1.052618    10.415193
  106   10.647607    2.127602    2.129997    7.257116     1.052618    10.415193
  107   10.647607    6.387598    2.129997    7.257120     1.052618    10.415193
  108   10.647607   10.647607    2.129997    7.257120     1.052618    10.415193
 --------------------------------------------------------------------------------
    VACUUM CHARGE:               0.0000
    VACUUM VOLUME:               0.0000
    NUMBER OF ELECTRONS:       810.0000
