 vasp.6.4.3 19Mar24 (build Jul 11 2024 14:45:55) complex                        
  
 executed on             LinuxIFC date 2024.10.16  10:27:15
 running  104 mpi-ranks, with    1 threads/rank, on    1 nodes
 distrk:  each k-point on   26 cores,    4 groups
 distr:  one band on NCORE=   1 cores,   26 groups


--------------------------------------------------------------------------------------------------------


 INCAR:
   SYSTEM = CoO Bulk Cubic Fm3m
   GGA = PE
   ISTART = 0
   ICHARG = 2
   PREC = Accurate
   LASPH = .TRUE.
   ISMEAR = 0
   SIGMA = 0.03
   ENCUT = 600
   EDIFF = 1E-7
   NELM = 300
   LREAL = Auto
   LMAXMIX = 4
   ISPIN = 2
   MAGMOM = 27*5 27*-5 54*0.0
   ALGO = Normal
   NELMIN = 5
   ISIF = 2
   NSW = 400
   IBRION = 1
   EDIFFG = -0.001
   LDAU = .TRUE.
   LDAUTYPE = 2
   LDAUL = 2 -1
   LDAUU = 3.0 0
   LWAVE = .FALSE.
   LCHARG = .FALSE.
   LDAUJ = 0 0
   LDAUPRINT = 0
   LORBIT = 11
   NCORE = 8
   KPAR = 4

 POTCAR:    PAW_PBE Co 02Aug2007                  
 POTCAR:    PAW_PBE O 08Apr2002                   
 POTCAR:    PAW_PBE Co 02Aug2007                  
   VRHFIN =Co: d8 s1                                                                                
   LEXCH  = PE                                                                                      
   EATOM  =   813.3670 eV,   59.7808 Ry                                                             
                                                                                                    
   TITEL  = PAW_PBE Co 02Aug2007                                                                    
   LULTRA =        F    use ultrasoft PP ?                                                          
   IUNSCR =        1    unscreen: 0-lin 1-nonlin 2-no                                               
   RPACOR =    2.000    partial core radius                                                         
   POMASS =   58.933; ZVAL   =    9.000    mass and valenz                                          
   RCORE  =    2.300    outmost cutoff radius                                                       
   RWIGS  =    2.460; RWIGS  =    1.302    wigner-seitz radius (au A)                               
   ENMAX  =  267.968; ENMIN  =  200.976 eV                                                          
   RCLOC  =    1.203    cutoff for local pot                                                        
   LCOR   =        T    correct aug charges                                                         
   LPAW   =        T    paw PP                                                                      
   EAUG   =  477.818                                                                                
   DEXC   =    0.000                                                                                
   RMAX   =    2.360    core radius for proj-oper                                                   
   RAUG   =    1.300    factor for augmentation sphere                                              
   RDEP   =    2.393    radius for radial grids                                                     
   RDEPT  =    1.864    core radius for aug-charge                                                  
                                                                                                    
   Atomic configuration                                                                             
    9 entries                                                                                       
     n  l   j            E        occ.                                                              
     1  0  0.50     -7587.6674   2.0000                                                             
     2  0  0.50      -893.6084   2.0000                                                             
     2  1  1.50      -764.5805   6.0000                                                             
     3  0  0.50       -97.5973   2.0000                                                             
     3  1  1.50       -60.9648   6.0000                                                             
     3  2  2.50        -4.2382   8.0000                                                             
     4  0  0.50        -4.3746   1.0000                                                             
     4  1  1.50        -4.0817   0.0000                                                             
     4  3  2.50        -1.3606   0.0000                                                             
   Description                                                                                      
     l       E           TYP  RCUT    TYP  RCUT                                                     
     2     -4.2382362     23  2.300                                                                 
     2     -5.5988188     23  2.300                                                                 
     0     -4.3745797     23  2.300                                                                 
     0      5.7660125     23  2.300                                                                 
     1     -2.7211652     23  2.300                                                                 
     1     16.9860234     23  2.300                                                                 
  local pseudopotential read in
  partial core-charges read in
  partial kinetic energy density read in
  atomic valenz-charges read in
  non local Contribution for L=           2  read in
    real space projection operators read in
  non local Contribution for L=           2  read in
    real space projection operators read in
  non local Contribution for L=           0  read in
    real space projection operators read in
  non local Contribution for L=           0  read in
    real space projection operators read in
  non local Contribution for L=           1  read in
    real space projection operators read in
  non local Contribution for L=           1  read in
    real space projection operators read in
    PAW grid and wavefunctions read in
 
   number of l-projection  operators is LMAX  =           6
   number of lm-projection operators is LMMAX =          18
 
 POTCAR:    PAW_PBE O 08Apr2002                   
   VRHFIN =O: s2p4                                                                                  
   LEXCH  = PE                                                                                      
   EATOM  =   432.3788 eV,   31.7789 Ry                                                             
                                                                                                    
   TITEL  = PAW_PBE O 08Apr2002                                                                     
   LULTRA =        F    use ultrasoft PP ?                                                          
   IUNSCR =        1    unscreen: 0-lin 1-nonlin 2-no                                               
   RPACOR =    1.200    partial core radius                                                         
   POMASS =   16.000; ZVAL   =    6.000    mass and valenz                                          
   RCORE  =    1.520    outmost cutoff radius                                                       
   RWIGS  =    1.550; RWIGS  =    0.820    wigner-seitz radius (au A)                               
   ENMAX  =  400.000; ENMIN  =  300.000 eV                                                          
   ICORE  =        2    local potential                                                             
   LCOR   =        T    correct aug charges                                                         
   LPAW   =        T    paw PP                                                                      
   EAUG   =  605.392                                                                                
   DEXC   =    0.000                                                                                
   RMAX   =    1.553    core radius for proj-oper                                                   
   RAUG   =    1.300    factor for augmentation sphere                                              
   RDEP   =    1.550    radius for radial grids                                                     
   RDEPT  =    1.329    core radius for aug-charge                                                  
                                                                                                    
   Atomic configuration                                                                             
    4 entries                                                                                       
     n  l   j            E        occ.                                                              
     1  0  0.50      -514.6923   2.0000                                                             
     2  0  0.50       -23.9615   2.0000                                                             
     2  1  0.50        -9.0305   4.0000                                                             
     3  2  1.50        -9.5241   0.0000                                                             
   Description                                                                                      
     l       E           TYP  RCUT    TYP  RCUT                                                     
     0    -23.9615318     23  1.200                                                                 
     0     -9.5240782     23  1.200                                                                 
     1     -9.0304911     23  1.520                                                                 
     1      8.1634956     23  1.520                                                                 
     2     -9.5240782      7  1.500                                                                 
  local pseudopotential read in
  partial core-charges read in
  partial kinetic energy density read in
  kinetic energy density of atom read in
  atomic valenz-charges read in
  non local Contribution for L=           0  read in
    real space projection operators read in
  non local Contribution for L=           0  read in
    real space projection operators read in
  non local Contribution for L=           1  read in
    real space projection operators read in
  non local Contribution for L=           1  read in
    real space projection operators read in
    PAW grid and wavefunctions read in
 
   number of l-projection  operators is LMAX  =           4
   number of lm-projection operators is LMMAX =           8
 
 Optimization of the real space projectors (new method)

 maximal supplied QI-value         = 16.25
 optimisation between [QCUT,QGAM] = [ 12.51, 25.03] = [ 43.85,175.40] Ry 
 Optimized for a Real-space Cutoff    1.35 Angstroem

   l    n(q)    QCUT    max X(q) W(low)/X(q) W(high)/X(q)  e(spline) 
   2      9    12.514    65.824    0.12E-03    0.14E-03    0.37E-06
   2      9    12.514    61.429    0.12E-03    0.14E-03    0.37E-06
   0     10    12.514    56.174    0.18E-03    0.10E-03    0.14E-06
   0     10    12.514    31.263    0.16E-03    0.91E-04    0.13E-06
   1     10    12.514    19.828    0.11E-03    0.57E-04    0.19E-06
   1     10    12.514    15.139    0.95E-04    0.45E-04    0.15E-06
 Optimization of the real space projectors (new method)

 maximal supplied QI-value         = 24.76
 optimisation between [QCUT,QGAM] = [ 12.38, 25.00] = [ 42.90,175.06] Ry 
 Optimized for a Real-space Cutoff    1.16 Angstroem

   l    n(q)    QCUT    max X(q) W(low)/X(q) W(high)/X(q)  e(spline) 
   0      9    12.378    20.381    0.16E-03    0.67E-05    0.31E-06
   0      9    12.378    15.268    0.17E-03    0.81E-05    0.33E-06
   1      8    12.378     5.964    0.20E-03    0.16E-03    0.30E-06
   1      8    12.378     5.382    0.18E-03    0.14E-03    0.26E-06
  PAW_PBE Co 02Aug2007                  :
 energy of atom  1       EATOM= -813.3670
 kinetic energy error for atom=    0.0018 (will be added to EATOM!!)
  PAW_PBE O 08Apr2002                   :
 energy of atom  2       EATOM= -432.3788
 kinetic energy error for atom=    0.0168 (will be added to EATOM!!)
 
 
 POSCAR: Generated by VASPKIT code
  positions in direct lattice
  No initial velocities read in


 exchange-correlation table for PE
   RHO(1)=    0.500       N(1)  =     2000
   RHO(2)=  100.500       N(2)  =     4000
 


--------------------------------------------------------------------------------------------------------


 ion  position               nearest neighbor table
   1  0.333  0.333  0.040-  83 2.13  73 2.13  55 2.13  76 2.13  82 2.13  64 2.13  38 2.98  22 2.98
                            19 2.98  37 2.98  50 3.01  29 3.01  47 3.01  13 3.01  10 3.01  49 3.01
   2  0.333  0.666  0.040-  84 2.13  74 2.13  56 2.13  77 2.13  83 2.13  65 2.13  39 2.98  23 2.98
                            20 2.98  38 2.98  51 3.01  30 3.01  48 3.01  14 3.01  11 3.01  50 3.01
   3  0.333  1.000  0.040-  82 2.13  75 2.13  57 2.13  78 2.13  84 2.13  66 2.13  37 2.98  24 2.98
                            21 2.98  39 2.98  49 3.01  28 3.01  46 3.01  15 3.01  12 3.01  51 3.01
   4  0.666  0.333  0.040-  86 2.13  76 2.13  58 2.13  79 2.13  85 2.13  67 2.13  41 2.98  25 2.98
                            22 2.98  40 2.98  53 3.01  50 3.01  32 3.01  16 3.01  13 3.01  52 3.01
   5  0.666  0.666  0.040-  87 2.13  77 2.13  59 2.13  80 2.13  86 2.13  68 2.13  42 2.98  26 2.98
                            23 2.98  41 2.98  54 3.01  51 3.01  33 3.01  17 3.01  14 3.01  53 3.01
   6  0.666  1.000  0.040-  85 2.13  78 2.13  60 2.13  81 2.13  87 2.13  69 2.13  40 2.98  27 2.98
                            24 2.98  42 2.98  52 3.01  49 3.01  31 3.01  18 3.01  15 3.01  54 3.01
   7  1.000  0.333  0.040-  89 2.13  61 2.13  73 2.13  79 2.13  88 2.13  70 2.13  44 2.98  19 2.98
                            25 2.98  43 2.98  47 3.01  35 3.01  53 3.01  10 3.01  16 3.01  46 3.01
   8  1.000  0.666  0.040-  90 2.13  62 2.13  74 2.13  80 2.13  89 2.13  71 2.13  45 2.98  20 2.98
                            26 2.98  44 2.98  48 3.01  36 3.01  54 3.01  11 3.01  17 3.01  47 3.01
   9  1.000  1.000  0.040-  88 2.13  63 2.13  75 2.13  81 2.13  90 2.13  72 2.13  43 2.98  21 2.98
                            27 2.98  45 2.98  46 3.01  34 3.01  52 3.01  12 3.01  18 3.01  48 3.01
  10  0.166  0.333  0.002-  92 2.13  55 2.13  73 2.13  61 2.13  91 2.13  35 3.01  47 3.01  29 3.01
                             7 3.01   1 3.01  34 3.01  46 3.01  28 3.01
  11  0.166  0.666  0.002-  93 2.13  56 2.13  74 2.13  62 2.13  92 2.13  36 3.01  48 3.01  30 3.01
                             8 3.01   2 3.01  35 3.01  47 3.01  29 3.01
  12  0.166  1.000  0.002-  91 2.13  57 2.13  75 2.13  63 2.13  93 2.13  34 3.01  46 3.01  28 3.01
                             9 3.01   3 3.01  36 3.01  48 3.01  30 3.01
  13  0.500  0.333  0.002-  95 2.13  76 2.13  58 2.13  55 2.13  94 2.13  29 3.01  32 3.01  50 3.01
                             1 3.01   4 3.01  28 3.01  31 3.01  49 3.01
  14  0.500  0.666  0.002-  96 2.13  77 2.13  59 2.13  56 2.13  95 2.13  30 3.01  33 3.01  51 3.01
                             2 3.01   5 3.01  29 3.01  32 3.01  50 3.01
  15  0.500  1.000  0.002-  94 2.13  78 2.13  60 2.13  57 2.13  96 2.13  28 3.01  31 3.01  49 3.01
                             3 3.01   6 3.01  30 3.01  33 3.01  51 3.01
  16  0.833  0.333  0.002-  98 2.13  61 2.13  79 2.13  58 2.13  97 2.13  32 3.01  53 3.01  35 3.01
                             4 3.01   7 3.01  31 3.01  52 3.01  34 3.01
  17  0.833  0.666  0.002-  99 2.13  62 2.13  80 2.13  59 2.13  98 2.13  33 3.01  54 3.01  36 3.01
                             5 3.01   8 3.01  32 3.01  53 3.01  35 3.01
  18  0.833  1.000  0.002-  97 2.13  63 2.13  81 2.13  60 2.13  99 2.13  31 3.01  52 3.01  34 3.01
                             6 3.01   9 3.01  33 3.01  54 3.01  36 3.01
  19  0.166  0.333  0.078-  73 2.09 101 2.13  64 2.13  70 2.13 100 2.13  47 2.98   7 2.98   1 2.98
                            46 2.98  44 3.01  38 3.01  43 3.01  37 3.01
  20  0.166  0.666  0.078-  74 2.09 102 2.13  65 2.13  71 2.13 101 2.13  48 2.98   8 2.98   2 2.98
                            47 2.98  45 3.01  39 3.01  44 3.01  38 3.01
  21  0.166  1.000  0.078-  75 2.09 100 2.13  66 2.13  72 2.13 102 2.13  46 2.98   9 2.98   3 2.98
                            48 2.98  43 3.01  37 3.01  45 3.01  39 3.01
  22  0.500  0.333  0.078-  76 2.09 104 2.13  67 2.13  64 2.13 103 2.13  50 2.98   1 2.98   4 2.98
                            49 2.98  38 3.01  41 3.01  37 3.01  40 3.01
  23  0.500  0.666  0.078-  77 2.09 105 2.13  68 2.13  65 2.13 104 2.13  51 2.98   2 2.98   5 2.98
                            50 2.98  39 3.01  42 3.01  38 3.01  41 3.01
  24  0.500  1.000  0.078-  78 2.09 103 2.13  69 2.13  66 2.13 105 2.13  49 2.98   3 2.98   6 2.98
                            51 2.98  37 3.01  40 3.01  39 3.01  42 3.01
  25  0.833  0.333  0.078-  79 2.09 107 2.13  70 2.13  67 2.13 106 2.13  53 2.98   4 2.98   7 2.98
                            52 2.98  41 3.01  44 3.01  40 3.01  43 3.01
  26  0.833  0.666  0.078-  80 2.09 108 2.13  71 2.13  68 2.13 107 2.13  54 2.98   5 2.98   8 2.98
                            53 2.98  42 3.01  45 3.01  41 3.01  44 3.01
  27  0.833  1.000  0.078-  81 2.09 106 2.13  72 2.13  69 2.13 108 2.13  52 2.98   6 2.98   9 2.98
                            54 2.98  40 3.01  43 3.01  42 3.01  45 3.01
  28  0.333  0.166  0.002-  57 2.13  91 2.13  82 2.13  94 2.13  55 2.13  15 3.01   3 3.01  12 3.01
                            49 3.01  46 3.01  13 3.01   1 3.01  10 3.01
  29  0.333  0.500  0.002-  55 2.13  92 2.13  83 2.13  95 2.13  56 2.13  13 3.01   1 3.01  10 3.01
                            50 3.01  47 3.01  14 3.01   2 3.01  11 3.01
  30  0.333  0.833  0.002-  56 2.13  93 2.13  84 2.13  96 2.13  57 2.13  14 3.01   2 3.01  11 3.01
                            51 3.01  48 3.01  15 3.01   3 3.01  12 3.01
  31  0.666  0.166  0.002-  60 2.13  94 2.13  85 2.13  97 2.13  58 2.13  18 3.01  15 3.01   6 3.01
                            52 3.01  49 3.01  16 3.01  13 3.01   4 3.01
  32  0.666  0.500  0.002-  58 2.13  95 2.13  86 2.13  98 2.13  59 2.13  16 3.01  13 3.01   4 3.01
                            53 3.01  50 3.01  17 3.01  14 3.01   5 3.01
  33  0.666  0.833  0.002-  59 2.13  96 2.13  87 2.13  99 2.13  60 2.13  17 3.01  14 3.01   5 3.01
                            54 3.01  51 3.01  18 3.01  15 3.01   6 3.01
  34  1.000  0.166  0.002-  63 2.13  88 2.13  91 2.13  97 2.13  61 2.13  12 3.01   9 3.01  18 3.01
                            46 3.01  52 3.01  10 3.01   7 3.01  16 3.01
  35  1.000  0.500  0.002-  61 2.13  89 2.13  92 2.13  98 2.13  62 2.13  10 3.01   7 3.01  16 3.01
                            47 3.01  53 3.01  11 3.01   8 3.01  17 3.01
  36  1.000  0.833  0.002-  62 2.13  90 2.13  93 2.13  99 2.13  63 2.13  11 3.01   8 3.01  17 3.01
                            48 3.01  54 3.01  12 3.01   9 3.01  18 3.01
  37  0.333  0.166  0.078-  82 2.09  66 2.13 100 2.13 103 2.13  64 2.13   3 2.98  49 2.98  46 2.98
                             1 2.98  24 3.01  21 3.01  22 3.01  19 3.01
  38  0.333  0.500  0.078-  83 2.09  64 2.13 101 2.13 104 2.13  65 2.13   1 2.98  50 2.98  47 2.98
                             2 2.98  22 3.01  19 3.01  23 3.01  20 3.01
  39  0.333  0.833  0.078-  84 2.09  65 2.13 102 2.13 105 2.13  66 2.13   2 2.98  51 2.98  48 2.98
                             3 2.98  23 3.01  20 3.01  24 3.01  21 3.01
  40  0.666  0.166  0.078-  85 2.09  69 2.13 103 2.13 106 2.13  67 2.13   6 2.98  52 2.98  49 2.98
                             4 2.98  27 3.01  24 3.01  25 3.01  22 3.01
  41  0.666  0.500  0.078-  86 2.09  67 2.13 104 2.13 107 2.13  68 2.13   4 2.98  53 2.98  50 2.98
                             5 2.98  25 3.01  22 3.01  26 3.01  23 3.01
  42  0.666  0.833  0.078-  87 2.09  68 2.13 105 2.13 108 2.13  69 2.13   5 2.98  54 2.98  51 2.98
                             6 2.98  26 3.01  23 3.01  27 3.01  24 3.01
  43  1.000  0.166  0.078-  88 2.09  72 2.13 100 2.13 106 2.13  70 2.13   9 2.98  46 2.98  52 2.98
                             7 2.98  21 3.01  27 3.01  19 3.01  25 3.01
  44  1.000  0.500  0.078-  89 2.09  70 2.13 101 2.13 107 2.13  71 2.13   7 2.98  47 2.98  53 2.98
                             8 2.98  19 3.01  25 3.01  20 3.01  26 3.01
  45  1.000  0.833  0.078-  90 2.09  71 2.13 102 2.13 108 2.13  72 2.13   8 2.98  48 2.98  54 2.98
                             9 2.98  20 3.01  26 3.01  21 3.01  27 3.01
  46  0.166  0.166  0.040-  75 2.13  82 2.13  91 2.13  88 2.13  73 2.13 100 2.13  21 2.98  43 2.98
                            37 2.98  19 2.98   9 3.01  12 3.01   3 3.01  34 3.01  28 3.01   7 3.01
  47  0.166  0.500  0.040-  73 2.13  83 2.13  92 2.13  89 2.13  74 2.13 101 2.13  19 2.98  44 2.98
                            38 2.98  20 2.98   7 3.01  10 3.01   1 3.01  35 3.01  29 3.01   8 3.01
  48  0.166  0.833  0.040-  74 2.13  84 2.13  93 2.13  90 2.13  75 2.13 102 2.13  20 2.98  45 2.98
                            39 2.98  21 2.98   8 3.01  11 3.01   2 3.01  36 3.01  30 3.01   9 3.01
  49  0.500  0.166  0.040-  78 2.13  94 2.13  85 2.13  82 2.13  76 2.13 103 2.13  24 2.98  37 2.98
                            40 2.98  22 2.98   3 3.01   6 3.01  15 3.01  28 3.01  31 3.01   1 3.01
  50  0.500  0.500  0.040-  76 2.13  95 2.13  86 2.13  83 2.13  77 2.13 104 2.13  22 2.98  38 2.98
                            41 2.98  23 2.98   1 3.01   4 3.01  13 3.01  29 3.01  32 3.01   2 3.01
  51  0.500  0.833  0.040-  77 2.13  96 2.13  87 2.13  84 2.13  78 2.13 105 2.13  23 2.98  39 2.98
                            42 2.98  24 2.98   2 3.01   5 3.01  14 3.01  30 3.01  33 3.01   3 3.01
  52  0.833  0.166  0.040-  81 2.13  88 2.13  97 2.13  85 2.13  79 2.13 106 2.13  27 2.98  40 2.98
                            43 2.98  25 2.98   6 3.01  18 3.01   9 3.01  31 3.01  34 3.01   4 3.01
  53  0.833  0.500  0.040-  79 2.13  89 2.13  98 2.13  86 2.13  80 2.13 107 2.13  25 2.98  41 2.98
                            44 2.98  26 2.98   4 3.01  16 3.01   7 3.01  32 3.01  35 3.01   5 3.01
  54  0.833  0.833  0.040-  80 2.13  90 2.13  99 2.13  87 2.13  81 2.13 108 2.13  26 2.98  42 2.98
                            45 2.98  27 2.98   5 3.01  17 3.01   8 3.01  33 3.01  36 3.01   6 3.01
  55  0.333  0.333  0.002-  29 2.13  10 2.13   1 2.13  13 2.13  28 2.13
  56  0.333  0.666  0.002-  30 2.13  11 2.13   2 2.13  14 2.13  29 2.13
  57  0.333  1.000  0.002-  28 2.13  12 2.13   3 2.13  15 2.13  30 2.13
  58  0.666  0.333  0.002-  32 2.13   4 2.13  13 2.13  16 2.13  31 2.13
  59  0.666  0.666  0.002-  33 2.13   5 2.13  14 2.13  17 2.13  32 2.13
  60  0.666  1.000  0.002-  31 2.13   6 2.13  15 2.13  18 2.13  33 2.13
  61  1.000  0.333  0.002-  35 2.13  16 2.13   7 2.13  10 2.13  34 2.13
  62  1.000  0.666  0.002-  36 2.13  17 2.13   8 2.13  11 2.13  35 2.13
  63  1.000  1.000  0.002-  34 2.13  18 2.13   9 2.13  12 2.13  36 2.13
  64  0.333  0.333  0.079-  38 2.13  19 2.13  22 2.13  37 2.13   1 2.13
  65  0.333  0.666  0.079-  39 2.13  20 2.13  23 2.13  38 2.13   2 2.13
  66  0.333  1.000  0.079-  37 2.13  21 2.13  24 2.13  39 2.13   3 2.13
  67  0.666  0.333  0.079-  41 2.13  22 2.13  25 2.13  40 2.13   4 2.13
  68  0.666  0.666  0.079-  42 2.13  23 2.13  26 2.13  41 2.13   5 2.13
  69  0.666  1.000  0.079-  40 2.13  24 2.13  27 2.13  42 2.13   6 2.13
  70  1.000  0.333  0.079-  44 2.13  25 2.13  19 2.13  43 2.13   7 2.13
  71  1.000  0.666  0.079-  45 2.13  26 2.13  20 2.13  44 2.13   8 2.13
  72  1.000  1.000  0.079-  43 2.13  27 2.13  21 2.13  45 2.13   9 2.13
  73  0.166  0.333  0.040-  19 2.09  47 2.13   1 2.13  10 2.13   7 2.13  46 2.13
  74  0.166  0.666  0.040-  20 2.09  48 2.13   2 2.13  11 2.13   8 2.13  47 2.13
  75  0.166  1.000  0.040-  21 2.09  46 2.13   3 2.13  12 2.13   9 2.13  48 2.13
  76  0.500  0.333  0.040-  22 2.09  50 2.13   4 2.13  13 2.13   1 2.13  49 2.13
  77  0.500  0.666  0.040-  23 2.09  51 2.13   5 2.13  14 2.13   2 2.13  50 2.13
  78  0.500  1.000  0.040-  24 2.09  49 2.13   6 2.13  15 2.13   3 2.13  51 2.13
  79  0.833  0.333  0.040-  25 2.09  53 2.13  16 2.13   7 2.13   4 2.13  52 2.13
  80  0.833  0.666  0.040-  26 2.09  54 2.13  17 2.13   8 2.13   5 2.13  53 2.13
  81  0.833  1.000  0.040-  27 2.09  52 2.13  18 2.13   9 2.13   6 2.13  54 2.13
  82  0.333  0.166  0.040-  37 2.09   3 2.13  46 2.13  28 2.13  49 2.13   1 2.13
  83  0.333  0.500  0.040-  38 2.09   1 2.13  47 2.13  29 2.13  50 2.13   2 2.13
  84  0.333  0.833  0.040-  39 2.09   2 2.13  48 2.13  30 2.13  51 2.13   3 2.13
  85  0.666  0.166  0.040-  40 2.09   6 2.13  31 2.13  49 2.13  52 2.13   4 2.13
  86  0.666  0.500  0.040-  41 2.09   4 2.13  32 2.13  50 2.13  53 2.13   5 2.13
  87  0.666  0.833  0.040-  42 2.09   5 2.13  33 2.13  51 2.13  54 2.13   6 2.13
  88  1.000  0.166  0.040-  43 2.09   9 2.13  52 2.13  34 2.13  46 2.13   7 2.13
  89  1.000  0.500  0.040-  44 2.09   7 2.13  53 2.13  35 2.13  47 2.13   8 2.13
  90  1.000  0.833  0.040-  45 2.09   8 2.13  54 2.13  36 2.13  48 2.13   9 2.13
  91  0.166  0.166  0.002-  12 2.13  28 2.13  46 2.13  34 2.13  10 2.13
  92  0.166  0.500  0.002-  10 2.13  29 2.13  47 2.13  35 2.13  11 2.13
  93  0.166  0.833  0.002-  11 2.13  30 2.13  48 2.13  36 2.13  12 2.13
  94  0.500  0.166  0.002-  15 2.13  31 2.13  49 2.13  28 2.13  13 2.13
  95  0.500  0.500  0.002-  13 2.13  32 2.13  50 2.13  29 2.13  14 2.13
  96  0.500  0.833  0.002-  14 2.13  33 2.13  51 2.13  30 2.13  15 2.13
  97  0.833  0.166  0.002-  18 2.13  52 2.13  34 2.13  31 2.13  16 2.13
  98  0.833  0.500  0.002-  16 2.13  53 2.13  35 2.13  32 2.13  17 2.13
  99  0.833  0.833  0.002-  17 2.13  54 2.13  36 2.13  33 2.13  18 2.13
 100  0.166  0.166  0.079-  21 2.13  37 2.13  43 2.13  19 2.13  46 2.13
 101  0.166  0.500  0.079-  19 2.13  38 2.13  44 2.13  20 2.13  47 2.13
 102  0.166  0.833  0.079-  20 2.13  39 2.13  45 2.13  21 2.13  48 2.13
 103  0.500  0.166  0.079-  24 2.13  40 2.13  37 2.13  22 2.13  49 2.13
 104  0.500  0.500  0.079-  22 2.13  41 2.13  38 2.13  23 2.13  50 2.13
 105  0.500  0.833  0.079-  23 2.13  42 2.13  39 2.13  24 2.13  51 2.13
 106  0.833  0.166  0.079-  27 2.13  43 2.13  40 2.13  25 2.13  52 2.13
 107  0.833  0.500  0.079-  25 2.13  44 2.13  41 2.13  26 2.13  53 2.13
 108  0.833  0.833  0.079-  26 2.13  45 2.13  42 2.13  27 2.13  54 2.13
 
  LATTYP: Found a simple tetragonal cell.
 ALAT       =    12.7800006866
 C/A-ratio  =     4.3138636031
  
  Lattice vectors:
  
 A1 = (  12.7800006866,   0.0000000000,   0.0000000000)
 A2 = (   0.0000000000,  12.7800006866,   0.0000000000)
 A3 = (   0.0000000000,   0.0000000000,  55.1311798096)


Analysis of symmetry for initial positions (statically):
=====================================================================
 Subroutine PRICEL returns following result:
 
  LATTYP: Found a simple tetragonal cell.
 ALAT       =     3.0122770257
 C/A-ratio  =    18.3021612350
  
  Lattice vectors:
  
 A1 = (   2.1299990324,  -2.1300039910,   0.0000000000)
 A2 = (   2.1299990324,   2.1299959908,   0.0000000000)
 A3 = (   0.0000000000,   0.0000000000,  55.1311798096)
 
  18 primitive cells build up your supercell.
 

 Routine SETGRP: Setting up the symmetry group for a 
 simple tetragonal supercell.


 Subroutine GETGRP returns: Found  8 space group operations
 (whereof  2 operations were pure point group operations)
 out of a pool of 16 trial point group operations.


The static configuration has the point symmetry C_1h.
 The point group associated with its full space group is C_4v.


Analysis of symmetry for dynamics (positions and initial velocities):
=====================================================================
 Subroutine PRICEL returns following result:
 
  LATTYP: Found a simple tetragonal cell.
 ALAT       =     3.0122770257
 C/A-ratio  =    18.3021612350
  
  Lattice vectors:
  
 A1 = (   2.1299990324,  -2.1300039910,   0.0000000000)
 A2 = (   2.1299990324,   2.1299959908,   0.0000000000)
 A3 = (   0.0000000000,   0.0000000000,  55.1311798096)
 
  18 primitive cells build up your supercell.
 

 Routine SETGRP: Setting up the symmetry group for a 
 simple tetragonal supercell.


 Subroutine GETGRP returns: Found  8 space group operations
 (whereof  2 operations were pure point group operations)
 out of a pool of 16 trial point group operations.


The dynamic configuration has the point symmetry C_1h.
 The point group associated with its full space group is C_4v.


Analysis of constrained symmetry for selective dynamics:
=====================================================================
 Subroutine PRICEL returns following result:
 
  LATTYP: Found a simple tetragonal cell.
 ALAT       =     3.0122770257
 C/A-ratio  =    18.3021612350
  
  Lattice vectors:
  
 A1 = (   2.1299990324,  -2.1300039910,   0.0000000000)
 A2 = (   2.1299990324,   2.1299959908,   0.0000000000)
 A3 = (   0.0000000000,   0.0000000000,  55.1311798096)
 
  18 primitive cells build up your supercell.
 

 Routine SETGRP: Setting up the symmetry group for a 
 simple tetragonal supercell.


 Subroutine GETGRP returns: Found  8 space group operations
 (whereof  2 operations were pure point group operations)
 out of a pool of 16 trial point group operations.


The constrained configuration has the point symmetry C_1h.
 The point group associated with its full space group is C_4v.


Analysis of structural, dynamic, and magnetic symmetry:
=====================================================================
 Subroutine PRICEL returns following result:
 
  LATTYP: Found a simple tetragonal cell.
 ALAT       =     3.0122770257
 C/A-ratio  =    18.3021612350
  
  Lattice vectors:
  
 A1 = (   2.1299990324,  -2.1300039910,   0.0000000000)
 A2 = (   2.1299990324,   2.1299959908,   0.0000000000)
 A3 = (   0.0000000000,   0.0000000000,  55.1311798096)
 
  18 primitive cells build up your supercell.
 

 Routine SETGRP: Setting up the symmetry group for a 
 simple tetragonal supercell.


 Subroutine GETGRP returns: Found  4 space group operations
 (whereof  1 operations were pure point group operations)
 out of a pool of 16 trial point group operations.


The overall configuration has the point symmetry C_1 .
 The point group associated with its full space group is C_2v.


 Subroutine INISYM returns: Found  4 space group operations
 (whereof  1 operations are pure point group operations),
 and found    18 'primitive' translations


----------------------------------------------------------------------------------------

                                     Primitive cell                                     

  volume of cell :     500.2491

  direct lattice vectors                    reciprocal lattice vectors
     2.129999032 -2.130003991  0.000000000     0.234741450 -0.234741785  0.000000000
     2.129999032  2.129995991  0.000000000     0.234742332  0.234741785  0.000000000
     0.000000000  0.000000000 55.131179810     0.000000000  0.000000000  0.018138556

  length of vectors
     3.012277026  3.012271369 55.131179810     0.331974779  0.331975402  0.018138556

  position of ions in fractional coordinates (direct lattice)
     0.999998216  0.998879016  0.040448997
     0.499999110  0.498878122  0.001813856
     0.499999110  0.498878122  0.078296274
     0.999997589  0.998879103  0.001813874
     0.999997589  0.998879103  0.079096891
     0.499999200  0.498877492  0.040448979

  ion indices of the primitive-cell ions
   primitive index   ion index
                 1           1
                 2          29
                 3          38
                 4          55
                 5          64
                 6          83

----------------------------------------------------------------------------------------

 
 
 KPOINTS: KPOINTS                                 

Automatic generation of k-mesh.
 Grid dimensions read from file:
 generate k-points for:    2    2    1

 Generating k-lattice:

  Cartesian coordinates                     Fractional coordinates (reciprocal lattice)
     0.039123629  0.000000000  0.000000000     0.500000000  0.000000000  0.000000000
     0.000000000  0.039123629  0.000000000     0.000000000  0.500000000  0.000000000
     0.000000000  0.000000000  0.018138556     0.000000000  0.000000000  1.000000000

  Length of vectors
     0.039123629  0.039123629  0.018138556

  Shift w.r.t. Gamma in fractional coordinates (k-lattice)
     0.000000000  0.000000000  0.000000000

 
 Subroutine IBZKPT returns following result:
 ===========================================
 
 Found      4 irreducible k-points:
 
 Following reciprocal coordinates:
            Coordinates               Weight
  0.000000  0.000000  0.000000      1.000000
  0.500000  0.000000  0.000000      1.000000
  0.000000  0.500000  0.000000      1.000000
  0.500000  0.500000  0.000000      1.000000
 
 Following cartesian coordinates:
            Coordinates               Weight
  0.000000  0.000000  0.000000      1.000000
  0.039124  0.000000  0.000000      1.000000
  0.000000  0.039124  0.000000      1.000000
  0.039124  0.039124  0.000000      1.000000
 


--------------------------------------------------------------------------------------------------------




 Dimension of arrays:
   k-points           NKPTS =      4   k-points in BZ     NKDIM =      4   number of bands    NBANDS=    494
   number of dos      NEDOS =    301   number of ions     NIONS =    108
   non local maximal  LDIM  =      6   non local SUM 2l+1 LMDIM =     18
   total plane-waves  NPLWV = ******
   max r-space proj   IRMAX =   5976   max aug-charges    IRDMAX=  23084
   dimension x,y,z NGX =   108 NGY =  108 NGZ =  448
   dimension x,y,z NGXF=   216 NGYF=  216 NGZF=  896
   support grid    NGXF=   216 NGYF=  216 NGZF=  896
   ions per type =              54  54
   NGX,Y,Z   is equivalent  to a cutoff of  14.05, 14.05, 13.51 a.u.
   NGXF,Y,Z  is equivalent  to a cutoff of  28.10, 28.10, 27.02 a.u.

 SYSTEM =  CoO Bulk Cubic Fm3m                     
 POSCAR =  Generated by VASPKIT code               

 Startparameter for this run:
   NWRITE =      2    write-flag & timer
   PREC   = accura    normal or accurate (medium, high low for compatibility)
   ISTART =      0    job   : 0-new  1-cont  2-samecut
   ICHARG =      2    charge: 1-file 2-atom 10-const
   ISPIN  =      2    spin polarized calculation?
   LNONCOLLINEAR =      F non collinear calculations
   LSORBIT =      F    spin-orbit coupling
   INIWAV =      1    electr: 0-lowe 1-rand  2-diag
   LASPH  =      T    aspherical Exc in radial PAW
 Electronic Relaxation 1
   ENCUT  =  600.0 eV  44.10 Ry    6.64 a.u.  25.52 25.52110.11*2*pi/ulx,y,z
   ENINI  =  600.0     initial cutoff
   ENAUG  =  605.4 eV  augmentation charge cutoff
   NELM   =    300;   NELMIN=  5; NELMDL= -5     # of ELM steps 
   EDIFF  = 0.1E-06   stopping-criterion for ELM
   LREAL  =      T    real-space projection
   NLSPLINE    = F    spline interpolate recip. space projectors
   LCOMPAT=      F    compatible to vasp.4.4
   GGA_COMPAT  = T    GGA compatible to vasp.4.4-vasp.4.6
   LMAXPAW     = -100 max onsite density
   LMAXMIX     =    4 max onsite mixed and CHGCAR
   VOSKOWN=      0    Vosko Wilk Nusair interpolation
   ROPT   =   -0.00025  -0.00025
 Ionic relaxation
   EDIFFG = -.1E-02   stopping-criterion for IOM
   NSW    =    400    number of steps for IOM
   NBLOCK =      1;   KBLOCK =    400    inner block; outer block 
   IBRION =      1    ionic relax: 0-MD 1-quasi-New 2-CG
   NFREE  =      0    steps in history (QN), initial steepest desc. (CG)
   ISIF   =      2    stress and relaxation
   IWAVPR =     11    prediction:  0-non 1-charg 2-wave 3-comb
   ISYM   =      2    0-nonsym 1-usesym 2-fastsym
   LCORR  =      T    Harris-Foulkes like correction to forces

   POTIM  = 0.5000    time-step for ionic-motion
   TEIN   =    0.0    initial temperature
   TEBEG  =    0.0;   TEEND  =   0.0 temperature during run
   SMASS  =  -3.00    Nose mass-parameter (am)
   estimated Nose-frequenzy (Omega)   =  0.10E-29 period in steps = 0.13E+47 mass=  -0.373E-26a.u.
   SCALEE = 1.0000    scale energy and forces
   NPACO  =    256;   APACO  = 10.0  distance and # of slots for P.C.
   PSTRESS=    0.0 pullay stress

  Mass of Ions in am
   POMASS =  58.93 16.00
  Ionic Valenz
   ZVAL   =   9.00  6.00
  Atomic Wigner-Seitz radii
   RWIGS  =  -1.00 -1.00
  virtual crystal weights 
   VCA    =   1.00  1.00
   NELECT =     810.0000    total number of electrons
   NUPDOWN=      -1.0000    fix difference up-down

 DOS related values:
   EMIN   =  10.00;   EMAX   =-10.00  energy-range for DOS
   EFERMI =   0.00;   METHOD = LEGACY      
   ISMEAR =     0;   SIGMA  =   0.03  broadening in eV -4-tet -1-fermi 0-gaus

 Electronic relaxation 2 (details)
   IALGO  =     38    algorithm
   LDIAG  =      T    sub-space diagonalisation (order eigenvalues)
   LSUBROT=      F    optimize rotation matrix (better conditioning)
   TURBO    =      0    0=normal 1=particle mesh
   IRESTART =      0    0=no restart 2=restart with 2 vectors
   NREBOOT  =      0    no. of reboots
   NMIN     =      0    reboot dimension
   EREF     =   0.00    reference energy to select bands
   IMIX   =      4    mixing-type and parameters
     AMIX     =   0.40;   BMIX     =  1.00
     AMIX_MAG =   1.60;   BMIX_MAG =  1.00
     AMIN     =   0.10
     WC   =   100.;   INIMIX=   1;  MIXPRE=   1;  MAXMIX= -45

 Intra band minimization:
   WEIMIN = 0.0010     energy-eigenvalue tresh-hold
   EBREAK =  0.51E-10  absolut break condition
   DEPER  =   0.30     relativ break condition  

   TIME   =   0.40     timestep for ELM

  volume/ion in A,a.u.               =      83.37       562.64
  Fermi-wavevector in a.u.,A,eV,Ry     =   0.733528  1.386167  7.320800  0.538064
  Thomas-Fermi vector in A             =   1.826259
 
 Write flags
   LWAVE        =      F    write WAVECAR
   LDOWNSAMPLE  =      F    k-point downsampling of WAVECAR
   LCHARG       =      F    write CHGCAR
   LVTOT        =      F    write LOCPOT, total local potential
   LVHAR        =      F    write LOCPOT, Hartree potential only
   WRT_POTENTIAL= false  ! write potential to hdf5 file
   LELF         =      F    write electronic localiz. function (ELF)
   LORBIT       =     11    0 simple, 1 ext, 2 COOP (PROOUT), +10 PAW based schemes


 Dipole corrections
   LMONO      =      F    monopole corrections only (constant potential shift)
   LDIPOL     =      F    correct potential (dipole corrections)
   IDIPOL     =      0    1-x, 2-y, 3-z, 4-all directions 
   EPSILON    =  1.0000000 bulk dielectric constant
   LVACPOTAV  =      F  vacuum potentials using an averaging scheme for the charge density
   VACPOTFLAT =  0.1000000 required flatness to determine vacuum potential
 LDA+U is selected, type is set to LDAUTYPE =  2
   angular momentum for each species LDAUL =     2   -1
   U (eV)           for each species LDAUU =   3.0  0.0
   J (eV)           for each species LDAUJ =   0.0  0.0
 Exchange correlation treatment:
   GGA     = PE    functional components
   XC_C    = 1    coefficients multiplying the functional components
   LIBXC   =     F    Libxc                    
   VOSKOWN =     0    Vosko Wilk Nusair interpolation
   LHFCALC =     F    Hartree Fock is set to
   LHFONE  =     F    Hartree Fock one center treatment
   AEXX    =    0.0000 exact exchange contribution

 Parameters of functionals:
   PE:
     No parameter
 
 Van der Waals corrections
   IVDW    =     0    specifies the selected vdW correction

 Linear response parameters
   LEPSILON=     F    determine dielectric tensor
   LRPA    =     F    only Hartree local field effects (RPA)
   LNABLA  =     F    use nabla operator in PAW spheres
   LVEL    =     F    velocity operator in full k-point grid
   CSHIFT  =0.1000    complex shift for real part using Kramers Kronig
   OMEGAMAX=  -1.0    maximum frequency
   DEG_THRESHOLD= 0.2000000E-02 threshold for treating states as degnerate
   RTIME   =   -0.100 relaxation time in fs
  (WPLASMAI=    0.000 imaginary part of plasma frequency in eV, 0.658/RTIME)
   DFIELD  = 0.0000000 0.0000000 0.0000000 field for delta impulse in time
 
  Optional k-point grid parameters
   LKPOINTS_OPT  =     F    use optional k-point grid
   KPOINTS_OPT_MODE=     1    mode for optional k-point grid
 
 Orbital magnetization related:
   ORBITALMAG=     F  switch on orbital magnetization
   LCHIMAG   =     F  perturbation theory with respect to B field
   DQ        =  0.001000  dq finite difference perturbation B field
   LLRAUG    =     F  two centre corrections for induced B field
   LBONE     =     F  B-component reconstruction in AE one-centre
   LVGVCALC  =     T  calculate vGv susceptibility
   LVGVAPPL  =     F  apply vGv susceptibility instead of pGv for G=0

 Random number generation:
   RANDOM_GENERATOR = DEFAULT
   PCG_SEED         = not used
 -----------------------------------------------------------------------------
|                                                                             |
|           W    W    AA    RRRRR   N    N  II  N    N   GGGG   !!!           |
|           W    W   A  A   R    R  NN   N  II  NN   N  G    G  !!!           |
|           W    W  A    A  R    R  N N  N  II  N N  N  G       !!!           |
|           W WW W  AAAAAA  RRRRR   N  N N  II  N  N N  G  GGG   !            |
|           WW  WW  A    A  R   R   N   NN  II  N   NN  G    G                |
|           W    W  A    A  R    R  N    N  II  N    N   GGGG   !!!           |
|                                                                             |
|     One of the lattice vectors is very long (>50 A), but AMIN is rather     |
|     large. This can spoil convergence since charge sloshing might occur     |
|     along the long lattice vector. If problems with convergence are         |
|     observed, try to decrease AMIN to a smaller value (e.g. 0.01).          |
|     Note: This warning only applies if the self-consistency cycle is        |
|     used.                                                                   |
|                                                                             |
 -----------------------------------------------------------------------------



--------------------------------------------------------------------------------------------------------


 quasi-Newton-method for relaxation of ions
   using selective dynamics as specified on POSCAR
 charge density and potential will be updated during run
 spin polarized calculation
 Variant of blocked Davidson
 Davidson routine will perform the subspace rotation
 perform sub-space diagonalisation
    after iterative eigenvector-optimisation
 modified Broyden-mixing scheme, WC =      100.0
 initial mixing is a Kerker type mixing with AMIX =  0.4000 and BMIX =      1.0000
 Hartree-type preconditioning will be used
 using additional bands           89
 real space projection scheme for non local part
 use partial core corrections
 calculate Harris-corrections to forces 
   (improved forces if not selfconsistent)
 use gradient corrections 
 use of overlap-Matrix (Vanderbilt PP)
 Gauss-broadening in eV      SIGMA  =   0.03


--------------------------------------------------------------------------------------------------------


  energy-cutoff  :      600.00
  volume of cell :     9004.49
      direct lattice vectors                 reciprocal lattice vectors
    12.780000687  0.000000000  0.000000000     0.078247257  0.000000000  0.000000000
     0.000000000 12.780000687  0.000000000     0.000000000  0.078247257  0.000000000
     0.000000000  0.000000000 55.131179810     0.000000000  0.000000000  0.018138556

  length of vectors
    12.780000687 12.780000687 55.131179810     0.078247257  0.078247257  0.018138556


 
 k-points in units of 2pi/SCALE and weight: KPOINTS                                 
   0.00000000  0.00000000  0.00000000       0.250
   0.03912363  0.00000000  0.00000000       0.250
   0.00000000  0.03912363  0.00000000       0.250
   0.03912363  0.03912363  0.00000000       0.250
 
 k-points in reciprocal lattice and weights: KPOINTS                                 
   0.00000000  0.00000000  0.00000000       0.250
   0.50000000  0.00000000  0.00000000       0.250
   0.00000000  0.50000000  0.00000000       0.250
   0.50000000  0.50000000  0.00000000       0.250
 
 position of ions in fractional coordinates (direct lattice) 
   0.33314604  0.33314616  0.04044900
   0.33314604  0.66647947  0.04044900
   0.33314604  0.99981284  0.04044900
   0.66647935  0.33314616  0.04044900
   0.66647935  0.66647947  0.04044900
   0.66647935  0.99981284  0.04044900
   0.99981272  0.33314616  0.04044900
   0.99981272  0.66647947  0.04044900
   0.99981272  0.99981284  0.04044900
   0.16647930  0.33314616  0.00181386
   0.16647930  0.66647947  0.00181386
   0.16647930  0.99981284  0.00181386
   0.49981263  0.33314616  0.00181386
   0.49981263  0.66647947  0.00181386
   0.49981263  0.99981284  0.00181386
   0.83314598  0.33314616  0.00181386
   0.83314598  0.66647947  0.00181386
   0.83314598  0.99981284  0.00181386
   0.16647930  0.33314616  0.07829627
   0.16647930  0.66647947  0.07829627
   0.16647930  0.99981284  0.07829627
   0.49981263  0.33314616  0.07829627
   0.49981263  0.66647947  0.07829627
   0.49981263  0.99981284  0.07829627
   0.83314598  0.33314616  0.07829627
   0.83314598  0.66647947  0.07829627
   0.83314598  0.99981284  0.07829627
   0.33314604  0.16647919  0.00181386
   0.33314604  0.49981251  0.00181386
   0.33314604  0.83314586  0.00181386
   0.66647935  0.16647919  0.00181386
   0.66647935  0.49981251  0.00181386
   0.66647935  0.83314586  0.00181386
   0.99981272  0.16647919  0.00181386
   0.99981272  0.49981251  0.00181386
   0.99981272  0.83314586  0.00181386
   0.33314604  0.16647919  0.07829627
   0.33314604  0.49981251  0.07829627
   0.33314604  0.83314586  0.07829627
   0.66647935  0.16647919  0.07829627
   0.66647935  0.49981251  0.07829627
   0.66647935  0.83314586  0.07829627
   0.99981272  0.16647919  0.07829627
   0.99981272  0.49981251  0.07829627
   0.99981272  0.83314586  0.07829627
   0.16647930  0.16647919  0.04044900
   0.16647930  0.49981251  0.04044900
   0.16647930  0.83314586  0.04044900
   0.49981263  0.16647919  0.04044900
   0.49981263  0.49981251  0.04044900
   0.49981263  0.83314586  0.04044900
   0.83314598  0.16647919  0.04044900
   0.83314598  0.49981251  0.04044900
   0.83314598  0.83314586  0.04044900
   0.33314595  0.33314627  0.00181387
   0.33314595  0.66647959  0.00181387
   0.33314595  0.99981296  0.00181387
   0.66647929  0.33314627  0.00181387
   0.66647929  0.66647959  0.00181387
   0.66647929  0.99981296  0.00181387
   0.99981260  0.33314627  0.00181387
   0.99981260  0.66647959  0.00181387
   0.99981260  0.99981296  0.00181387
   0.33314595  0.33314627  0.07909689
   0.33314595  0.66647959  0.07909689
   0.33314595  0.99981296  0.07909689
   0.66647929  0.33314627  0.07909689
   0.66647929  0.66647959  0.07909689
   0.66647929  0.99981296  0.07909689
   0.99981260  0.33314627  0.07909689
   0.99981260  0.66647959  0.07909689
   0.99981260  0.99981296  0.07909689
   0.16647939  0.33314627  0.04044898
   0.16647939  0.66647959  0.04044898
   0.16647939  0.99981296  0.04044898
   0.49981272  0.33314627  0.04044898
   0.49981272  0.66647959  0.04044898
   0.49981272  0.99981296  0.04044898
   0.83314604  0.33314627  0.04044898
   0.83314604  0.66647959  0.04044898
   0.83314604  0.99981296  0.04044898
   0.33314595  0.16647907  0.04044898
   0.33314595  0.49981239  0.04044898
   0.33314595  0.83314574  0.04044898
   0.66647929  0.16647907  0.04044898
   0.66647929  0.49981239  0.04044898
   0.66647929  0.83314574  0.04044898
   0.99981260  0.16647907  0.04044898
   0.99981260  0.49981239  0.04044898
   0.99981260  0.83314574  0.04044898
   0.16647939  0.16647907  0.00181387
   0.16647939  0.49981239  0.00181387
   0.16647939  0.83314574  0.00181387
   0.49981272  0.16647907  0.00181387
   0.49981272  0.49981239  0.00181387
   0.49981272  0.83314574  0.00181387
   0.83314604  0.16647907  0.00181387
   0.83314604  0.49981239  0.00181387
   0.83314604  0.83314574  0.00181387
   0.16647939  0.16647907  0.07909689
   0.16647939  0.49981239  0.07909689
   0.16647939  0.83314574  0.07909689
   0.49981272  0.16647907  0.07909689
   0.49981272  0.49981239  0.07909689
   0.49981272  0.83314574  0.07909689
   0.83314604  0.16647907  0.07909689
   0.83314604  0.49981239  0.07909689
   0.83314604  0.83314574  0.07909689
 
 position of ions in cartesian coordinates  (Angst):
   4.25760657  4.25760809  2.23000093
   4.25760657  8.51760806  2.23000093
   4.25760657 12.77760879  2.23000093
   8.51760654  4.25760809  2.23000093
   8.51760654  8.51760806  2.23000093
   8.51760654 12.77760879  2.23000093
  12.77760727  4.25760809  2.23000093
  12.77760727  8.51760806  2.23000093
  12.77760727 12.77760879  2.23000093
   2.12760562  4.25760809  0.10000002
   2.12760562  8.51760806  0.10000002
   2.12760562 12.77760879  0.10000002
   6.38760579  4.25760809  0.10000002
   6.38760579  8.51760806  0.10000002
   6.38760579 12.77760879  0.10000002
  10.64760615  4.25760809  0.10000002
  10.64760615  8.51760806  0.10000002
  10.64760615 12.77760879  0.10000002
   2.12760562  4.25760809  4.31656596
   2.12760562  8.51760806  4.31656596
   2.12760562 12.77760879  4.31656596
   6.38760579  4.25760809  4.31656596
   6.38760579  8.51760806  4.31656596
   6.38760579 12.77760879  4.31656596
  10.64760615  4.25760809  4.31656596
  10.64760615  8.51760806  4.31656596
  10.64760615 12.77760879  4.31656596
   4.25760657  2.12760410  0.10000002
   4.25760657  6.38760427  0.10000002
   4.25760657 10.64760462  0.10000002
   8.51760654  2.12760410  0.10000002
   8.51760654  6.38760427  0.10000002
   8.51760654 10.64760462  0.10000002
  12.77760727  2.12760410  0.10000002
  12.77760727  6.38760427  0.10000002
  12.77760727 10.64760462  0.10000002
   4.25760657  2.12760410  4.31656596
   4.25760657  6.38760427  4.31656596
   4.25760657 10.64760462  4.31656596
   8.51760654  2.12760410  4.31656596
   8.51760654  6.38760427  4.31656596
   8.51760654 10.64760462  4.31656596
  12.77760727  2.12760410  4.31656596
  12.77760727  6.38760427  4.31656596
  12.77760727 10.64760462  4.31656596
   2.12760562  2.12760410  2.23000093
   2.12760562  6.38760427  2.23000093
   2.12760562 10.64760462  2.23000093
   6.38760579  2.12760410  2.23000093
   6.38760579  6.38760427  2.23000093
   6.38760579 10.64760462  2.23000093
  10.64760615  2.12760410  2.23000093
  10.64760615  6.38760427  2.23000093
  10.64760615 10.64760462  2.23000093
   4.25760542  4.25760961  0.10000101
   4.25760542  8.51760959  0.10000101
   4.25760542 12.77761033  0.10000101
   8.51760578  4.25760961  0.10000101
   8.51760578  8.51760959  0.10000101
   8.51760578 12.77761033  0.10000101
  12.77760575  4.25760961  0.10000101
  12.77760575  8.51760959  0.10000101
  12.77760575 12.77761033  0.10000101
   4.25760542  4.25760961  4.36070492
   4.25760542  8.51760959  4.36070492
   4.25760542 12.77761033  4.36070492
   8.51760578  4.25760961  4.36070492
   8.51760578  8.51760959  4.36070492
   8.51760578 12.77761033  4.36070492
  12.77760575  4.25760961  4.36070492
  12.77760575  8.51760959  4.36070492
  12.77760575 12.77761033  4.36070492
   2.12760677  4.25760961  2.22999993
   2.12760677  8.51760959  2.22999993
   2.12760677 12.77761033  2.22999993
   6.38760693  4.25760961  2.22999993
   6.38760693  8.51760959  2.22999993
   6.38760693 12.77761033  2.22999993
  10.64760691  4.25760961  2.22999993
  10.64760691  8.51760959  2.22999993
  10.64760691 12.77761033  2.22999993
   4.25760542  2.12760258  2.22999993
   4.25760542  6.38760274  2.22999993
   4.25760542 10.64760310  2.22999993
   8.51760578  2.12760258  2.22999993
   8.51760578  6.38760274  2.22999993
   8.51760578 10.64760310  2.22999993
  12.77760575  2.12760258  2.22999993
  12.77760575  6.38760274  2.22999993
  12.77760575 10.64760310  2.22999993
   2.12760677  2.12760258  0.10000101
   2.12760677  6.38760274  0.10000101
   2.12760677 10.64760310  0.10000101
   6.38760693  2.12760258  0.10000101
   6.38760693  6.38760274  0.10000101
   6.38760693 10.64760310  0.10000101
  10.64760691  2.12760258  0.10000101
  10.64760691  6.38760274  0.10000101
  10.64760691 10.64760310  0.10000101
   2.12760677  2.12760258  4.36070492
   2.12760677  6.38760274  4.36070492
   2.12760677 10.64760310  4.36070492
   6.38760693  2.12760258  4.36070492
   6.38760693  6.38760274  4.36070492
   6.38760693 10.64760310  4.36070492
  10.64760691  2.12760258  4.36070492
  10.64760691  6.38760274  4.36070492
  10.64760691 10.64760310  4.36070492
 


--------------------------------------------------------------------------------------------------------


 k-point     1 :   0.0000 0.0000 0.0000  plane waves:  300545
 k-point     2 :   0.5000 0.0000 0.0000  plane waves:  300528
 k-point     3 :   0.0000 0.5000 0.0000  plane waves:  300528
 k-point     4 :   0.5000 0.5000 0.0000  plane waves:  300248

 maximum and minimum number of plane-waves per node :    300545   300248

 maximum number of plane-waves:    300545
 maximum index in each direction: 
   IXMAX=   25   IYMAX=   25   IZMAX=  110
   IXMIN=  -26   IYMIN=  -26   IZMIN= -110


 serial   3D FFT for wavefunctions
 parallel 3D FFT for charge:
    minimum data exchange during FFTs selected (reduces bandwidth)


 total amount of memory used by VASP MPI-rank0  1478704. kBytes
=======================================================================

   base      :      30000. kBytes
   nonlr-proj:      74424. kBytes
   fftplans  :      78540. kBytes
   grid      :     558005. kBytes
   one-center:       3359. kBytes
   wavefun   :     734376. kBytes
 
     INWAV:  cpu time      0.0000: real time      0.0003
 Broyden mixing: mesh for mixing (old mesh)
   NGX = 51   NGY = 51   NGZ =221
  (NGX  =216   NGY  =216   NGZ  =896)
  gives a total of 574821 points

 initial charge density was supplied:
 charge density of overlapping atoms calculated
 number of electron     810.0000000 magnetization       0.0000000
 keeping initial charge density in first step


--------------------------------------------------------------------------------------------------------


 Maximum index for non-local projection operator         5781
 Maximum index for augmentation-charges         1694 (set IRDMAX)


--------------------------------------------------------------------------------------------------------


 First call to EWALD:  gamma=   0.085
 Maximum number of real-space cells 4x 4x 1
 Maximum number of reciprocal cells 2x 2x 6

    FEWALD:  cpu time      0.0083: real time      0.0083


--------------------------------------- Ionic step        1  -------------------------------------------




--------------------------------------- Iteration      1(   1)  ---------------------------------------


    POTLOK:  cpu time      3.0374: real time      3.0574
    SETDIJ:  cpu time      0.4436: real time      0.4530
     EDDAV:  cpu time     57.2109: real time     57.5615
       DOS:  cpu time      0.0051: real time      0.0065
    --------------------------------------------
      LOOP:  cpu time     60.6971: real time     61.0784

 eigenvalue-minimisations  :  8034
 total energy-change (2. order) : 0.7913098E+04  (-0.3053195E+05)
 number of electron     810.0000000 magnetization       0.0000000
 augmentation part      810.0000000 magnetization       0.0000000

 Free energy of the ion-electron system (eV)
  ---------------------------------------------------
  alpha Z        PSCENC =       341.11452429
  Ewald energy   TEWEN  =   1266215.21265371
  -Hartree energ DENC   =  -1326394.23047313
  -exchange      EXHF   =         0.00000000
  -V(xc)+E(xc)   XCENC  =      2493.56077198
  PAW double counting   =     57491.92558585   -59859.28423938
  entropy T*S    EENTRO =        -0.04823185
  eigenvalues    EBANDS =       355.57783986
  atomic energy  EATOM  =     67269.26967399
  Solvation  Ediel_sol  =         0.00000000
  ---------------------------------------------------
  free energy    TOTEN  =      7913.09810531 eV

  energy without entropy =     7913.14633716  energy(sigma->0) =     7913.12222124


--------------------------------------------------------------------------------------------------------




--------------------------------------- Iteration      1(   2)  ---------------------------------------


     EDDAV:  cpu time     66.8006: real time     67.2457
       DOS:  cpu time      0.0485: real time      0.0487
    --------------------------------------------
      LOOP:  cpu time     66.8491: real time     67.2944

 eigenvalue-minimisations  :  9282
 total energy-change (2. order) :-0.6232525E+04  (-0.5960135E+04)
 number of electron     810.0000000 magnetization       0.0000000
 augmentation part      810.0000000 magnetization       0.0000000

 Free energy of the ion-electron system (eV)
  ---------------------------------------------------
  alpha Z        PSCENC =       341.11452429
  Ewald energy   TEWEN  =   1266215.21265371
  -Hartree energ DENC   =  -1326394.23047313
  -exchange      EXHF   =         0.00000000
  -V(xc)+E(xc)   XCENC  =      2493.56077198
  PAW double counting   =     57491.92558585   -59859.28423938
  entropy T*S    EENTRO =        -0.03334899
  eigenvalues    EBANDS =     -5876.96249589
  atomic energy  EATOM  =     67269.26967399
  Solvation  Ediel_sol  =         0.00000000
  ---------------------------------------------------
  free energy    TOTEN  =      1680.57265242 eV

  energy without entropy =     1680.60600141  energy(sigma->0) =     1680.58932692


--------------------------------------------------------------------------------------------------------




--------------------------------------- Iteration      1(   3)  ---------------------------------------


     EDDAV:  cpu time     82.6499: real time     83.1951
       DOS:  cpu time      0.0017: real time      0.0018
    --------------------------------------------
      LOOP:  cpu time     82.6516: real time     83.1968

 eigenvalue-minimisations  : 13052
 total energy-change (2. order) :-0.2159822E+04  (-0.2105471E+04)
 number of electron     810.0000000 magnetization       0.0000000
 augmentation part      810.0000000 magnetization       0.0000000

 Free energy of the ion-electron system (eV)
  ---------------------------------------------------
  alpha Z        PSCENC =       341.11452429
  Ewald energy   TEWEN  =   1266215.21265371
  -Hartree energ DENC   =  -1326394.23047313
  -exchange      EXHF   =         0.00000000
  -V(xc)+E(xc)   XCENC  =      2493.56077198
  PAW double counting   =     57491.92558585   -59859.28423938
  entropy T*S    EENTRO =        -0.08909863
  eigenvalues    EBANDS =     -8036.72892280
  atomic energy  EATOM  =     67269.26967399
  Solvation  Ediel_sol  =         0.00000000
  ---------------------------------------------------
  free energy    TOTEN  =      -479.24952413 eV

  energy without entropy =     -479.16042549  energy(sigma->0) =     -479.20497481


--------------------------------------------------------------------------------------------------------




--------------------------------------- Iteration      1(   4)  ---------------------------------------


     EDDAV:  cpu time     74.8122: real time     75.2951
       DOS:  cpu time      0.0020: real time      0.0021
    --------------------------------------------
      LOOP:  cpu time     74.8142: real time     75.2971

 eigenvalue-minimisations  : 11232
 total energy-change (2. order) :-0.2323404E+03  (-0.2249537E+03)
 number of electron     810.0000000 magnetization       0.0000000
 augmentation part      810.0000000 magnetization       0.0000000

 Free energy of the ion-electron system (eV)
  ---------------------------------------------------
  alpha Z        PSCENC =       341.11452429
  Ewald energy   TEWEN  =   1266215.21265371
  -Hartree energ DENC   =  -1326394.23047313
  -exchange      EXHF   =         0.00000000
  -V(xc)+E(xc)   XCENC  =      2493.56077198
  PAW double counting   =     57491.92558585   -59859.28423938
  entropy T*S    EENTRO =        -0.14134588
  eigenvalues    EBANDS =     -8269.01709340
  atomic energy  EATOM  =     67269.26967399
  Solvation  Ediel_sol  =         0.00000000
  ---------------------------------------------------
  free energy    TOTEN  =      -711.58994198 eV

  energy without entropy =     -711.44859610  energy(sigma->0) =     -711.51926904


--------------------------------------------------------------------------------------------------------




--------------------------------------- Iteration      1(   5)  ---------------------------------------


     EDDAV:  cpu time     80.3386: real time     81.1238
       DOS:  cpu time      0.0019: real time      0.0019
    CHARGE:  cpu time      7.0690: real time      7.1207
    MIXING:  cpu time      0.0794: real time      0.0815
    --------------------------------------------
      LOOP:  cpu time     87.4889: real time     88.3279

 eigenvalue-minimisations  : 12168
 total energy-change (2. order) :-0.1036321E+02  (-0.9606442E+01)
 number of electron     810.0000149 magnetization      -0.0000000
 augmentation part      286.0578890 magnetization      -0.0000000

 Broyden mixing:
  rms(total) = 0.12613E+02    rms(broyden)= 0.12612E+02
  rms(prec ) = 0.12721E+02
  weight for this iteration     100.00

 Free energy of the ion-electron system (eV)
  ---------------------------------------------------
  alpha Z        PSCENC =       341.11452429
  Ewald energy   TEWEN  =   1266215.21265371
  -Hartree energ DENC   =  -1326394.23047313
  -exchange      EXHF   =         0.00000000
  -V(xc)+E(xc)   XCENC  =      2493.56077198
  PAW double counting   =     57491.92558585   -59859.28423938
  entropy T*S    EENTRO =        -0.14144278
  eigenvalues    EBANDS =     -8279.38020479
  atomic energy  EATOM  =     67269.26967399
  Solvation  Ediel_sol  =         0.00000000
  ---------------------------------------------------
  free energy    TOTEN  =      -721.95315027 eV

  energy without entropy =     -721.81170749  energy(sigma->0) =     -721.88242888


--------------------------------------------------------------------------------------------------------




--------------------------------------- Iteration      1(   6)  ---------------------------------------


    POTLOK:  cpu time      3.3725: real time      4.3073
    SETDIJ:  cpu time      0.6741: real time      0.6782
     EDDAV:  cpu time     83.5173: real time     84.1282
       DOS:  cpu time      0.0025: real time      0.0025
    CHARGE:  cpu time      8.8020: real time      8.8714
    MIXING:  cpu time      0.0775: real time      0.0782
    --------------------------------------------
      LOOP:  cpu time     96.4459: real time     98.0658

 eigenvalue-minimisations  : 12714
 total energy-change (2. order) :-0.5123572E+02  (-0.2808920E+03)
 number of electron     809.9999937 magnetization      -0.0000000
 augmentation part      354.9490285 magnetization      -0.0000000

 Broyden mixing:
  rms(total) = 0.23143E+02    rms(broyden)= 0.23142E+02
  rms(prec ) = 0.23290E+02
  weight for this iteration     100.00

 eigenvalues of (default mixing * dielectric matrix)
  average eigenvalue GAMMA=   0.1856
  0.1856

 Free energy of the ion-electron system (eV)
  ---------------------------------------------------
  alpha Z        PSCENC =       341.11452429
  Ewald energy   TEWEN  =   1266215.21265371
  -Hartree energ DENC   =  -1326090.37656836
  -exchange      EXHF   =         0.00000000
  -V(xc)+E(xc)   XCENC  =      2457.88934881
  PAW double counting   =     60964.93514343   -63036.00548821
  entropy T*S    EENTRO =        -0.02948519
  eigenvalues    EBANDS =     -8895.19867203
  atomic energy  EATOM  =     67269.26967399
  Solvation  Ediel_sol  =         0.00000000
  ---------------------------------------------------
  free energy    TOTEN  =      -773.18886956 eV

  energy without entropy =     -773.15938437  energy(sigma->0) =     -773.17412697


--------------------------------------------------------------------------------------------------------




--------------------------------------- Iteration      1(   7)  ---------------------------------------


    POTLOK:  cpu time      2.9534: real time      2.9960
    SETDIJ:  cpu time      0.4721: real time      0.4744
     EDDAV:  cpu time     76.9438: real time     77.5244
       DOS:  cpu time      0.0019: real time      0.0019
    CHARGE:  cpu time      6.9007: real time      6.9552
    MIXING:  cpu time      0.0789: real time      0.0794
    --------------------------------------------
      LOOP:  cpu time     87.3507: real time     88.0313

 eigenvalue-minimisations  : 11752
 total energy-change (2. order) : 0.1408354E+03  (-0.7218198E+02)
 number of electron     810.0000030 magnetization      -0.0000000
 augmentation part      327.9811709 magnetization      -0.0000000

 Broyden mixing:
  rms(total) = 0.11953E+02    rms(broyden)= 0.11952E+02
  rms(prec ) = 0.12090E+02
  weight for this iteration     100.00

 eigenvalues of (default mixing * dielectric matrix)
  average eigenvalue GAMMA=   0.3403
  0.4359  0.2446

 Free energy of the ion-electron system (eV)
  ---------------------------------------------------
  alpha Z        PSCENC =       341.11452429
  Ewald energy   TEWEN  =   1266215.21265371
  -Hartree energ DENC   =  -1326022.12326018
  -exchange      EXHF   =         0.00000000
  -V(xc)+E(xc)   XCENC  =      2423.80899298
  PAW double counting   =     62370.96697560   -64651.59524116
  entropy T*S    EENTRO =        -0.07314207
  eigenvalues    EBANDS =     -8578.93463066
  atomic energy  EATOM  =     67269.26967399
  Solvation  Ediel_sol  =         0.00000000
  ---------------------------------------------------
  free energy    TOTEN  =      -632.35345351 eV

  energy without entropy =     -632.28031144  energy(sigma->0) =     -632.31688247


--------------------------------------------------------------------------------------------------------




--------------------------------------- Iteration      1(   8)  ---------------------------------------


    POTLOK:  cpu time      2.9352: real time      2.9838
    SETDIJ:  cpu time      0.4730: real time      0.4753
     EDDAV:  cpu time     82.2915: real time     82.9075
       DOS:  cpu time      0.0014: real time      0.0014
    CHARGE:  cpu time      7.6526: real time      7.7127
    MIXING:  cpu time      0.0790: real time      0.0806
    --------------------------------------------
      LOOP:  cpu time     93.4328: real time     94.1614

 eigenvalue-minimisations  : 12948
 total energy-change (2. order) :-0.1080169E+03  (-0.8302733E+02)
 number of electron     810.0000015 magnetization      -0.0000000
 augmentation part      318.6888624 magnetization      -0.0000000

 Broyden mixing:
  rms(total) = 0.17828E+02    rms(broyden)= 0.17827E+02
  rms(prec ) = 0.18263E+02
  weight for this iteration     100.00

 eigenvalues of (default mixing * dielectric matrix)
  average eigenvalue GAMMA=   0.3592
  0.6273  0.3074  0.1428

 Free energy of the ion-electron system (eV)
  ---------------------------------------------------
  alpha Z        PSCENC =       341.11452429
  Ewald energy   TEWEN  =   1266215.21265371
  -Hartree energ DENC   =  -1326395.40638812
  -exchange      EXHF   =         0.00000000
  -V(xc)+E(xc)   XCENC  =      2414.80592666
  PAW double counting   =     63949.02101912   -66343.48007858
  entropy T*S    EENTRO =        -0.09016844
  eigenvalues    EBANDS =     -8190.81749989
  atomic energy  EATOM  =     67269.26967399
  Solvation  Ediel_sol  =         0.00000000
  ---------------------------------------------------
  free energy    TOTEN  =      -740.37033727 eV

  energy without entropy =     -740.28016883  energy(sigma->0) =     -740.32525305


--------------------------------------------------------------------------------------------------------




--------------------------------------- Iteration      1(   9)  ---------------------------------------


    POTLOK:  cpu time      2.9450: real time      2.9913
    SETDIJ:  cpu time      0.4646: real time      0.4670
     EDDAV:  cpu time     80.8855: real time     81.5315
       DOS:  cpu time      0.0012: real time      0.0012
    CHARGE:  cpu time      6.7581: real time      6.8132
    MIXING:  cpu time      0.0793: real time      0.0798
    --------------------------------------------
      LOOP:  cpu time     91.1335: real time     91.8840

 eigenvalue-minimisations  : 12558
 total energy-change (2. order) : 0.7887726E+02  (-0.2867768E+02)
 number of electron     810.0000034 magnetization      -0.0000000
 augmentation part      317.4685850 magnetization      -0.0000000

 Broyden mixing:
  rms(total) = 0.14876E+02    rms(broyden)= 0.14876E+02
  rms(prec ) = 0.15101E+02
  weight for this iteration     100.00

 eigenvalues of (default mixing * dielectric matrix)
  average eigenvalue GAMMA=   0.3909
  0.6333  0.6333  0.1620  0.1349

 Free energy of the ion-electron system (eV)
  ---------------------------------------------------
  alpha Z        PSCENC =       341.11452429
  Ewald energy   TEWEN  =   1266215.21265371
  -Hartree energ DENC   =  -1326539.81284883
  -exchange      EXHF   =         0.00000000
  -V(xc)+E(xc)   XCENC  =      2414.49385791
  PAW double counting   =     65015.32992517   -67450.09787359
  entropy T*S    EENTRO =        -0.04946537
  eigenvalues    EBANDS =     -7926.95352835
  atomic energy  EATOM  =     67269.26967399
  Solvation  Ediel_sol  =         0.00000000
  ---------------------------------------------------
  free energy    TOTEN  =      -661.49308106 eV

  energy without entropy =     -661.44361570  energy(sigma->0) =     -661.46834838


--------------------------------------------------------------------------------------------------------




--------------------------------------- Iteration      1(  10)  ---------------------------------------


    POTLOK:  cpu time      2.9387: real time      2.9997
    SETDIJ:  cpu time      0.4624: real time      0.4647
     EDDAV:  cpu time     83.6052: real time     84.2328
       DOS:  cpu time      0.0012: real time      0.0012
    CHARGE:  cpu time      6.9207: real time      6.9733
    MIXING:  cpu time      0.0831: real time      0.0837
    --------------------------------------------
      LOOP:  cpu time     94.0114: real time     94.7554

 eigenvalue-minimisations  : 12350
 total energy-change (2. order) : 0.6187563E+02  (-0.2134504E+02)
 number of electron     810.0000079 magnetization      -0.0000000
 augmentation part      319.0591838 magnetization      -0.0000000

 Broyden mixing:
  rms(total) = 0.70547E+01    rms(broyden)= 0.70543E+01
  rms(prec ) = 0.71356E+01
  weight for this iteration     100.00

 eigenvalues of (default mixing * dielectric matrix)
  average eigenvalue GAMMA=   0.4866
  1.1593  0.4941  0.4941  0.1535  0.1321

 Free energy of the ion-electron system (eV)
  ---------------------------------------------------
  alpha Z        PSCENC =       341.11452429
  Ewald energy   TEWEN  =   1266215.21265371
  -Hartree energ DENC   =  -1326483.30582053
  -exchange      EXHF   =         0.00000000
  -V(xc)+E(xc)   XCENC  =      2428.48643037
  PAW double counting   =     66672.15068546   -69109.95042722
  entropy T*S    EENTRO =        -0.08002967
  eigenvalues    EBANDS =     -7932.51514186
  atomic energy  EATOM  =     67269.26967399
  Solvation  Ediel_sol  =         0.00000000
  ---------------------------------------------------
  free energy    TOTEN  =      -599.61745145 eV

  energy without entropy =     -599.53742179  energy(sigma->0) =     -599.57743662


--------------------------------------------------------------------------------------------------------




--------------------------------------- Iteration      1(  11)  ---------------------------------------


    POTLOK:  cpu time      2.9518: real time      2.9984
    SETDIJ:  cpu time      3.3079: real time      3.3235
     EDDAV:  cpu time     85.6974: real time     86.2289
       DOS:  cpu time      0.0010: real time      0.0010
    CHARGE:  cpu time      6.7545: real time      6.8004
    MIXING:  cpu time      0.0845: real time      0.0849
    --------------------------------------------
      LOOP:  cpu time     98.7969: real time     99.4371

 eigenvalue-minimisations  : 13026
 total energy-change (2. order) :-0.6839015E+01  (-0.6286005E+01)
 number of electron     810.0000079 magnetization      -0.0000000
 augmentation part      318.2787020 magnetization      -0.0000000

 Broyden mixing:
  rms(total) = 0.26783E+01    rms(broyden)= 0.26781E+01
  rms(prec ) = 0.26992E+01
  weight for this iteration     100.00

 eigenvalues of (default mixing * dielectric matrix)
  average eigenvalue GAMMA=   0.6012
  1.5551  0.8286  0.4682  0.4682  0.1552  0.1320

 Free energy of the ion-electron system (eV)
  ---------------------------------------------------
  alpha Z        PSCENC =       341.11452429
  Ewald energy   TEWEN  =   1266215.21265371
  -Hartree energ DENC   =  -1326860.30237473
  -exchange      EXHF   =         0.00000000
  -V(xc)+E(xc)   XCENC  =      2434.15323588
  PAW double counting   =     69052.59436926   -71542.01874068
  entropy T*S    EENTRO =        -0.05038840
  eigenvalues    EBANDS =     -7516.42941939
  atomic energy  EATOM  =     67269.26967399
  Solvation  Ediel_sol  =         0.00000000
  ---------------------------------------------------
  free energy    TOTEN  =      -606.45646607 eV

  energy without entropy =     -606.40607766  energy(sigma->0) =     -606.43127187


--------------------------------------------------------------------------------------------------------




--------------------------------------- Iteration      1(  12)  ---------------------------------------


    POTLOK:  cpu time      2.9489: real time      2.9881
    SETDIJ:  cpu time      0.4647: real time      0.4667
     EDDAV:  cpu time     81.6200: real time     82.0885
       DOS:  cpu time      0.0012: real time      0.0012
    CHARGE:  cpu time      6.8249: real time      6.8700
    MIXING:  cpu time      0.0848: real time      0.0852
    --------------------------------------------
      LOOP:  cpu time     91.9445: real time     92.4996

 eigenvalue-minimisations  : 12532
 total energy-change (2. order) :-0.1252186E+02  (-0.5585011E+01)
 number of electron     810.0000081 magnetization      -0.0000000
 augmentation part      316.7017089 magnetization      -0.0000000

 Broyden mixing:
  rms(total) = 0.17274E+01    rms(broyden)= 0.17273E+01
  rms(prec ) = 0.17477E+01
  weight for this iteration     100.00

 eigenvalues of (default mixing * dielectric matrix)
  average eigenvalue GAMMA=   0.6434
  1.8692  0.6709  0.6709  0.5025  0.5025  0.1555  0.1319

 Free energy of the ion-electron system (eV)
  ---------------------------------------------------
  alpha Z        PSCENC =       341.11452429
  Ewald energy   TEWEN  =   1266215.21265371
  -Hartree energ DENC   =  -1327088.42252527
  -exchange      EXHF   =         0.00000000
  -V(xc)+E(xc)   XCENC  =      2432.09697711
  PAW double counting   =     69862.41529565   -72371.93838570
  entropy T*S    EENTRO =        -0.03500222
  eigenvalues    EBANDS =     -7278.69154151
  atomic energy  EATOM  =     67269.26967399
  Solvation  Ediel_sol  =         0.00000000
  ---------------------------------------------------
  free energy    TOTEN  =      -618.97832996 eV

  energy without entropy =     -618.94332774  energy(sigma->0) =     -618.96082885


--------------------------------------------------------------------------------------------------------




--------------------------------------- Iteration      1(  13)  ---------------------------------------


    POTLOK:  cpu time      2.9403: real time      2.9795
    SETDIJ:  cpu time      0.4725: real time      0.4745
     EDDAV:  cpu time     69.4564: real time     69.8514
       DOS:  cpu time      0.0012: real time      0.0012
    CHARGE:  cpu time      6.7699: real time      6.8125
    MIXING:  cpu time      0.0884: real time      0.0889
    --------------------------------------------
      LOOP:  cpu time     79.7286: real time     80.2079

 eigenvalue-minimisations  : 10504
 total energy-change (2. order) :-0.4007226E+01  (-0.1383975E+01)
 number of electron     810.0000083 magnetization      -0.0000000
 augmentation part      316.2679859 magnetization      -0.0000000

 Broyden mixing:
  rms(total) = 0.14660E+01    rms(broyden)= 0.14659E+01
  rms(prec ) = 0.14768E+01
  weight for this iteration     100.00

 eigenvalues of (default mixing * dielectric matrix)
  average eigenvalue GAMMA=   0.6441
  1.9010  0.7457  0.5973  0.5973  0.5120  0.5120  0.1319  0.1554

 Free energy of the ion-electron system (eV)
  ---------------------------------------------------
  alpha Z        PSCENC =       341.11452429
  Ewald energy   TEWEN  =   1266215.21265371
  -Hartree energ DENC   =  -1327194.53697440
  -exchange      EXHF   =         0.00000000
  -V(xc)+E(xc)   XCENC  =      2434.09885178
  PAW double counting   =     70069.57093130   -72571.66948994
  entropy T*S    EENTRO =        -0.03336324
  eigenvalues    EBANDS =     -7186.01236368
  atomic energy  EATOM  =     67269.26967399
  Solvation  Ediel_sol  =         0.00000000
  ---------------------------------------------------
  free energy    TOTEN  =      -622.98555619 eV

  energy without entropy =     -622.95219296  energy(sigma->0) =     -622.96887457


--------------------------------------------------------------------------------------------------------




--------------------------------------- Iteration      1(  14)  ---------------------------------------


    POTLOK:  cpu time      2.9364: real time      2.9744
    SETDIJ:  cpu time      0.4751: real time      0.4773
     EDDAV:  cpu time     78.1646: real time     81.8033
       DOS:  cpu time      0.0023: real time      0.0023
    CHARGE:  cpu time      9.8230: real time      9.8965
    MIXING:  cpu time      0.0902: real time      0.0907
    --------------------------------------------
      LOOP:  cpu time     91.4915: real time     95.2446

 eigenvalue-minimisations  : 11882
 total energy-change (2. order) :-0.4240173E+01  (-0.8719879E+00)
 number of electron     810.0000084 magnetization      -0.0000000
 augmentation part      316.1774348 magnetization      -0.0000000

 Broyden mixing:
  rms(total) = 0.12061E+01    rms(broyden)= 0.12061E+01
  rms(prec ) = 0.12136E+01
  weight for this iteration     100.00

 eigenvalues of (default mixing * dielectric matrix)
  average eigenvalue GAMMA=   0.7307
  2.1984  0.8742  0.8742  0.6770  0.6770  0.4939  0.4939  0.1319  0.1554

 Free energy of the ion-electron system (eV)
  ---------------------------------------------------
  alpha Z        PSCENC =       341.11452429
  Ewald energy   TEWEN  =   1266215.21265371
  -Hartree energ DENC   =  -1327269.56809391
  -exchange      EXHF   =         0.00000000
  -V(xc)+E(xc)   XCENC  =      2436.60637402
  PAW double counting   =     70205.74808276   -72700.80482531
  entropy T*S    EENTRO =        -0.02194437
  eigenvalues    EBANDS =     -7124.78217452
  atomic energy  EATOM  =     67269.26967399
  Solvation  Ediel_sol  =         0.00000000
  ---------------------------------------------------
  free energy    TOTEN  =      -627.22572934 eV

  energy without entropy =     -627.20378497  energy(sigma->0) =     -627.21475716


--------------------------------------------------------------------------------------------------------




--------------------------------------- Iteration      1(  15)  ---------------------------------------


    POTLOK:  cpu time      2.9880: real time      3.1224
    SETDIJ:  cpu time      0.4700: real time      0.4721
     EDDAV:  cpu time     88.2638: real time     88.7994
       DOS:  cpu time      0.0013: real time      0.0013
[...]
     10.64761     12.77761      0.10000        -0.000000      0.000000      0.383922
      2.12761      4.25761      4.31650        -0.000000     -0.000000     -0.000789
      2.12761      8.51761      4.31650        -0.000000      0.000000     -0.000789
      2.12761     12.77761      4.31650        -0.000000      0.000000     -0.000789
      6.38761      4.25761      4.31650         0.000000     -0.000000     -0.000789
      6.38761      8.51761      4.31650         0.000000      0.000000     -0.000789
      6.38761     12.77761      4.31650         0.000000     -0.000000     -0.000789
     10.64761      4.25761      4.31650         0.000000      0.000000     -0.000789
     10.64761      8.51761      4.31650        -0.000000      0.000000     -0.000789
     10.64761     12.77761      4.31650         0.000000      0.000000     -0.000789
      4.25761      2.12760      0.10000         0.000000      0.000000      0.383922
      4.25761      6.38760      0.10000         0.000000      0.000000      0.383922
      4.25761     10.64760      0.10000        -0.000000     -0.000000      0.383922
      8.51761      2.12760      0.10000         0.000000      0.000000      0.383922
      8.51761      6.38760      0.10000         0.000000      0.000000      0.383922
      8.51761     10.64760      0.10000        -0.000000     -0.000000      0.383922
     12.77761      2.12760      0.10000         0.000000      0.000000      0.383922
     12.77761      6.38760      0.10000         0.000000     -0.000000      0.383922
     12.77761     10.64760      0.10000        -0.000000     -0.000000      0.383922
      4.25761      2.12760      4.31650        -0.000000      0.000000     -0.000789
      4.25761      6.38760      4.31650        -0.000000      0.000000     -0.000789
      4.25761     10.64760      4.31650        -0.000000      0.000000     -0.000789
      8.51761      2.12760      4.31650        -0.000000     -0.000000     -0.000789
      8.51761      6.38760      4.31650         0.000000     -0.000000     -0.000789
      8.51761     10.64760      4.31650        -0.000000     -0.000000     -0.000789
     12.77761      2.12760      4.31650         0.000000      0.000000     -0.000789
     12.77761      6.38760      4.31650         0.000000      0.000000     -0.000789
     12.77761     10.64760      4.31650         0.000000     -0.000000     -0.000789
      2.12761      2.12760      2.23000        -0.000000      0.000000      0.001042
      2.12761      6.38760      2.23000         0.000000      0.000000      0.001042
      2.12761     10.64760      2.23000        -0.000000     -0.000000      0.001042
      6.38761      2.12760      2.23000         0.000000      0.000000      0.001042
      6.38761      6.38760      2.23000         0.000000     -0.000000      0.001042
      6.38761     10.64760      2.23000        -0.000000     -0.000000      0.001042
     10.64761      2.12760      2.23000         0.000000     -0.000000      0.001042
     10.64761      6.38760      2.23000         0.000000     -0.000000      0.001042
     10.64761     10.64760      2.23000         0.000000     -0.000000      0.001042
      4.25761      4.25761      0.10000         0.000000      0.000000     -0.200325
      4.25761      8.51761      0.10000         0.000000     -0.000000     -0.200325
      4.25761     12.77761      0.10000         0.000000     -0.000000     -0.200325
      8.51761      4.25761      0.10000         0.000000      0.000000     -0.200325
      8.51761      8.51761      0.10000         0.000000      0.000000     -0.200325
      8.51761     12.77761      0.10000        -0.000000     -0.000000     -0.200325
     12.77761      4.25761      0.10000        -0.000000      0.000000     -0.200325
     12.77761      8.51761      0.10000        -0.000000      0.000000     -0.200325
     12.77761     12.77761      0.10000        -0.000000      0.000000     -0.200325
      4.25761      4.25761      4.36069         0.000000      0.000000     -0.000504
      4.25761      8.51761      4.36069        -0.000000      0.000000     -0.000504
      4.25761     12.77761      4.36069        -0.000000      0.000000     -0.000504
      8.51761      4.25761      4.36069        -0.000000      0.000000     -0.000504
      8.51761      8.51761      4.36069         0.000000      0.000000     -0.000504
      8.51761     12.77761      4.36069        -0.000000      0.000000     -0.000504
     12.77761      4.25761      4.36069         0.000000      0.000000     -0.000504
     12.77761      8.51761      4.36069         0.000000      0.000000     -0.000504
     12.77761     12.77761      4.36069        -0.000000      0.000000     -0.000504
      2.12761      4.25761      2.23000         0.000000      0.000000     -0.183346
      2.12761      8.51761      2.23000         0.000000     -0.000000     -0.183346
      2.12761     12.77761      2.23000        -0.000000      0.000000     -0.183346
      6.38761      4.25761      2.23000         0.000000      0.000000     -0.183346
      6.38761      8.51761      2.23000         0.000000     -0.000000     -0.183346
      6.38761     12.77761      2.23000         0.000000     -0.000000     -0.183346
     10.64761      4.25761      2.23000        -0.000000      0.000000     -0.183346
     10.64761      8.51761      2.23000        -0.000000      0.000000     -0.183346
     10.64761     12.77761      2.23000        -0.000000     -0.000000     -0.183346
      4.25761      2.12760      2.23000         0.000000     -0.000000     -0.183346
      4.25761      6.38760      2.23000         0.000000     -0.000000     -0.183346
      4.25761     10.64760      2.23000         0.000000     -0.000000     -0.183346
      8.51761      2.12760      2.23000        -0.000000      0.000000     -0.183346
      8.51761      6.38760      2.23000        -0.000000     -0.000000     -0.183346
      8.51761     10.64760      2.23000        -0.000000      0.000000     -0.183346
     12.77761      2.12760      2.23000        -0.000000      0.000000     -0.183346
     12.77761      6.38760      2.23000         0.000000      0.000000     -0.183346
     12.77761     10.64760      2.23000        -0.000000     -0.000000     -0.183346
      2.12761      2.12760      0.10000         0.000000     -0.000000     -0.200325
      2.12761      6.38760      0.10000         0.000000     -0.000000     -0.200325
      2.12761     10.64760      0.10000         0.000000     -0.000000     -0.200325
      6.38761      2.12760      0.10000         0.000000     -0.000000     -0.200325
      6.38761      6.38760      0.10000         0.000000     -0.000000     -0.200325
      6.38761     10.64760      0.10000         0.000000     -0.000000     -0.200325
     10.64761      2.12760      0.10000        -0.000000     -0.000000     -0.200325
     10.64761      6.38760      0.10000        -0.000000     -0.000000     -0.200325
     10.64761     10.64760      0.10000        -0.000000     -0.000000     -0.200325
      2.12761      2.12760      4.36069        -0.000000     -0.000000     -0.000504
      2.12761      6.38760      4.36069         0.000000      0.000000     -0.000504
      2.12761     10.64760      4.36069        -0.000000     -0.000000     -0.000504
      6.38761      2.12760      4.36069        -0.000000     -0.000000     -0.000504
      6.38761      6.38760      4.36069         0.000000     -0.000000     -0.000504
      6.38761     10.64760      4.36069        -0.000000     -0.000000     -0.000504
     10.64761      2.12760      4.36069        -0.000000     -0.000000     -0.000504
     10.64761      6.38760      4.36069         0.000000     -0.000000     -0.000504
     10.64761     10.64760      4.36069        -0.000000     -0.000000     -0.000504
 -----------------------------------------------------------------------------------
    total drift:                                0.086093      0.006260     -0.078528


--------------------------------------------------------------------------------------------------------



  FREE ENERGIE OF THE ION-ELECTRON SYSTEM (eV)
  ---------------------------------------------------
  free  energy   TOTEN  =      -629.80155847 eV

  energy  without entropy=     -629.80155793  energy(sigma->0) =     -629.80155820
 
 d Force = 0.1290407E-05[ 0.104E-05, 0.154E-05]  d Energy = 0.2817833E-05-0.153E-05
 d Force =-0.3152457E+01[-0.315E+01,-0.315E+01]  d Ewald  =-0.3152457E+01-0.226E-07


--------------------------------------------------------------------------------------------------------


    POTLOK:  cpu time      6.6670: real time      6.7025


--------------------------------------------------------------------------------------------------------


 Quasi-Newton relaxation of ions (Broydens 2nd method)
  g(Force)  = 0.762E-06   g(Stress)= 0.000E+00

 retain information from N=  1 steps
 eigenvalues of (default step * inverse Hessian matrix)
  average eigenvalue of G=   2.2644
 eigenvalue spectrum of G is  2.2644


--------------------------------------------------------------------------------------------------------


  
 reached required accuracy - stopping structural energy minimisation
     LOOP+:  cpu time    501.0591: real time    504.3732
    4ORBIT:  cpu time      0.0000: real time      0.0000



 total charge

# of ion       s       p       d       tot
------------------------------------------
    1        0.308   0.373   7.145   7.826
    2        0.308   0.373   7.145   7.826
    3        0.308   0.373   7.145   7.826
    4        0.308   0.373   7.145   7.826
    5        0.308   0.373   7.145   7.826
    6        0.308   0.373   7.145   7.826
    7        0.308   0.373   7.145   7.826
    8        0.308   0.373   7.145   7.826
    9        0.308   0.373   7.145   7.826
   10        0.296   0.320   7.083   7.698
   11        0.296   0.320   7.083   7.698
   12        0.296   0.320   7.083   7.698
   13        0.296   0.320   7.083   7.698
   14        0.296   0.320   7.083   7.698
   15        0.296   0.320   7.083   7.698
   16        0.296   0.320   7.083   7.698
   17        0.296   0.320   7.083   7.698
   18        0.296   0.320   7.083   7.698
   19        0.298   0.328   7.091   7.717
   20        0.298   0.328   7.091   7.717
   21        0.298   0.328   7.091   7.717
   22        0.298   0.328   7.091   7.717
   23        0.298   0.328   7.091   7.717
   24        0.298   0.328   7.091   7.717
   25        0.298   0.328   7.091   7.717
   26        0.298   0.328   7.091   7.717
   27        0.298   0.328   7.091   7.717
   28        0.296   0.320   7.083   7.698
   29        0.296   0.320   7.083   7.698
   30        0.296   0.320   7.083   7.698
   31        0.296   0.320   7.083   7.698
   32        0.296   0.320   7.083   7.698
   33        0.296   0.320   7.083   7.698
   34        0.296   0.320   7.083   7.698
   35        0.296   0.320   7.083   7.698
   36        0.296   0.320   7.083   7.698
   37        0.298   0.328   7.091   7.717
   38        0.298   0.328   7.091   7.717
   39        0.298   0.328   7.091   7.717
   40        0.298   0.328   7.091   7.717
   41        0.298   0.328   7.091   7.717
   42        0.298   0.328   7.091   7.717
   43        0.298   0.328   7.091   7.717
   44        0.298   0.328   7.091   7.717
   45        0.298   0.328   7.091   7.717
   46        0.308   0.373   7.145   7.826
   47        0.308   0.373   7.145   7.826
   48        0.308   0.373   7.145   7.826
   49        0.308   0.373   7.145   7.826
   50        0.308   0.373   7.145   7.826
   51        0.308   0.373   7.145   7.826
   52        0.308   0.373   7.145   7.826
   53        0.308   0.373   7.145   7.826
   54        0.308   0.373   7.145   7.826
   55        1.549   3.415   0.000   4.964
   56        1.549   3.415   0.000   4.964
   57        1.549   3.415   0.000   4.964
   58        1.549   3.415   0.000   4.964
   59        1.549   3.415   0.000   4.964
   60        1.549   3.415   0.000   4.964
   61        1.549   3.415   0.000   4.964
   62        1.549   3.415   0.000   4.964
   63        1.549   3.415   0.000   4.964
   64        1.549   3.415   0.000   4.964
   65        1.549   3.415   0.000   4.964
   66        1.549   3.415   0.000   4.964
   67        1.549   3.415   0.000   4.964
   68        1.549   3.415   0.000   4.964
   69        1.549   3.415   0.000   4.964
   70        1.549   3.415   0.000   4.964
   71        1.549   3.415   0.000   4.964
   72        1.549   3.415   0.000   4.964
   73        1.548   3.464   0.000   5.012
   74        1.548   3.464   0.000   5.012
   75        1.548   3.464   0.000   5.012
   76        1.548   3.464   0.000   5.012
   77        1.548   3.464   0.000   5.012
   78        1.548   3.464   0.000   5.012
   79        1.548   3.464   0.000   5.012
   80        1.548   3.464   0.000   5.012
   81        1.548   3.464   0.000   5.012
   82        1.548   3.464   0.000   5.012
   83        1.548   3.464   0.000   5.012
   84        1.548   3.464   0.000   5.012
   85        1.548   3.464   0.000   5.012
   86        1.548   3.464   0.000   5.012
   87        1.548   3.464   0.000   5.012
   88        1.548   3.464   0.000   5.012
   89        1.548   3.464   0.000   5.012
   90        1.548   3.464   0.000   5.012
   91        1.549   3.415   0.000   4.964
   92        1.549   3.415   0.000   4.964
   93        1.549   3.415   0.000   4.964
   94        1.549   3.415   0.000   4.964
   95        1.549   3.415   0.000   4.964
   96        1.549   3.415   0.000   4.964
   97        1.549   3.415   0.000   4.964
   98        1.549   3.415   0.000   4.964
   99        1.549   3.415   0.000   4.964
  100        1.549   3.415   0.000   4.964
  101        1.549   3.415   0.000   4.964
  102        1.549   3.415   0.000   4.964
  103        1.549   3.415   0.000   4.964
  104        1.549   3.415   0.000   4.964
  105        1.549   3.415   0.000   4.964
  106        1.549   3.415   0.000   4.964
  107        1.549   3.415   0.000   4.964
  108        1.549   3.415   0.000   4.964
--------------------------------------------------
tot         99.841 203.683 383.731 687.255



 magnetization (x)

# of ion       s       p       d       tot
------------------------------------------
    1        0.022   0.019   2.662   2.703
    2        0.022   0.019   2.662   2.703
    3        0.022   0.019   2.662   2.703
    4        0.022   0.019   2.662   2.703
    5        0.022   0.019   2.662   2.703
    6        0.022   0.019   2.662   2.703
    7        0.022   0.019   2.662   2.703
    8        0.022   0.019   2.662   2.703
    9        0.022   0.019   2.662   2.703
   10        0.033   0.026   2.672   2.730
   11        0.033   0.026   2.672   2.730
   12        0.033   0.026   2.672   2.730
   13        0.033   0.026   2.672   2.730
   14        0.033   0.026   2.672   2.730
   15        0.033   0.026   2.672   2.730
   16        0.033   0.026   2.672   2.730
   17        0.033   0.026   2.672   2.730
   18        0.033   0.026   2.672   2.730
   19        0.031   0.027   2.670   2.728
   20        0.031   0.027   2.670   2.728
   21        0.031   0.027   2.670   2.728
   22        0.031   0.027   2.670   2.728
   23        0.031   0.027   2.670   2.728
   24        0.031   0.027   2.670   2.728
   25        0.031   0.027   2.670   2.728
   26        0.031   0.027   2.670   2.728
   27        0.031   0.027   2.670   2.728
   28       -0.033  -0.026  -2.672  -2.730
   29       -0.033  -0.026  -2.672  -2.730
   30       -0.033  -0.026  -2.672  -2.730
   31       -0.033  -0.026  -2.672  -2.730
   32       -0.033  -0.026  -2.672  -2.730
   33       -0.033  -0.026  -2.672  -2.730
   34       -0.033  -0.026  -2.672  -2.730
   35       -0.033  -0.026  -2.672  -2.730
   36       -0.033  -0.026  -2.672  -2.730
   37       -0.031  -0.027  -2.670  -2.728
   38       -0.031  -0.027  -2.670  -2.728
   39       -0.031  -0.027  -2.670  -2.728
   40       -0.031  -0.027  -2.670  -2.728
   41       -0.031  -0.027  -2.670  -2.728
   42       -0.031  -0.027  -2.670  -2.728
   43       -0.031  -0.027  -2.670  -2.728
   44       -0.031  -0.027  -2.670  -2.728
   45       -0.031  -0.027  -2.670  -2.728
   46       -0.022  -0.019  -2.662  -2.703
   47       -0.022  -0.019  -2.662  -2.703
   48       -0.022  -0.019  -2.662  -2.703
   49       -0.022  -0.019  -2.662  -2.703
   50       -0.022  -0.019  -2.662  -2.703
   51       -0.022  -0.019  -2.662  -2.703
   52       -0.022  -0.019  -2.662  -2.703
   53       -0.022  -0.019  -2.662  -2.703
   54       -0.022  -0.019  -2.662  -2.703
   55        0.005   0.093   0.000   0.098
   56        0.005   0.093   0.000   0.098
   57        0.005   0.093   0.000   0.098
   58        0.005   0.093   0.000   0.098
   59        0.005   0.093   0.000   0.098
   60        0.005   0.093   0.000   0.098
   61        0.005   0.093   0.000   0.098
   62        0.005   0.093   0.000   0.098
   63        0.005   0.093   0.000   0.098
   64        0.005   0.097   0.000   0.102
   65        0.005   0.097   0.000   0.102
   66        0.005   0.097   0.000   0.102
   67        0.005   0.097   0.000   0.102
   68        0.005   0.097   0.000   0.102
   69        0.005   0.097   0.000   0.102
   70        0.005   0.097   0.000   0.102
   71        0.005   0.097   0.000   0.102
   72        0.005   0.097   0.000   0.102
   73        0.011   0.135   0.000   0.146
   74        0.011   0.135   0.000   0.146
   75        0.011   0.135   0.000   0.146
   76        0.011   0.135   0.000   0.146
   77        0.011   0.135   0.000   0.146
   78        0.011   0.135   0.000   0.146
   79        0.011   0.135   0.000   0.146
   80        0.011   0.135   0.000   0.146
   81        0.011   0.135   0.000   0.146
   82       -0.011  -0.135   0.000  -0.146
   83       -0.011  -0.135   0.000  -0.146
   84       -0.011  -0.135   0.000  -0.146
   85       -0.011  -0.135   0.000  -0.146
   86       -0.011  -0.135   0.000  -0.146
   87       -0.011  -0.135   0.000  -0.146
   88       -0.011  -0.135   0.000  -0.146
   89       -0.011  -0.135   0.000  -0.146
   90       -0.011  -0.135   0.000  -0.146
   91       -0.005  -0.093   0.000  -0.098
   92       -0.005  -0.093   0.000  -0.098
   93       -0.005  -0.093   0.000  -0.098
   94       -0.005  -0.093   0.000  -0.098
   95       -0.005  -0.093   0.000  -0.098
   96       -0.005  -0.093   0.000  -0.098
   97       -0.005  -0.093   0.000  -0.098
   98       -0.005  -0.093   0.000  -0.098
   99       -0.005  -0.093   0.000  -0.098
  100       -0.005  -0.097   0.000  -0.102
  101       -0.005  -0.097   0.000  -0.102
  102       -0.005  -0.097   0.000  -0.102
  103       -0.005  -0.097   0.000  -0.102
  104       -0.005  -0.097   0.000  -0.102
  105       -0.005  -0.097   0.000  -0.102
  106       -0.005  -0.097   0.000  -0.102
  107       -0.005  -0.097   0.000  -0.102
  108       -0.005  -0.097   0.000  -0.102
--------------------------------------------------
tot         -0.000  -0.000   0.000  -0.000
 

 total amount of memory used by VASP MPI-rank0  1478704. kBytes
=======================================================================

   base      :      30000. kBytes
   nonlr-proj:      74424. kBytes
   fftplans  :      78540. kBytes
   grid      :     558005. kBytes
   one-center:       3359. kBytes
   wavefun   :     734376. kBytes
 
  
  
 General timing and accounting informations for this job:
 ========================================================
  
                  Total CPU time used (sec):     5635.494
                            User time (sec):     5610.523
                          System time (sec):       24.971
                         Elapsed time (sec):     5682.448
  
                   Maximum memory used (kb):     2124896.
                   Average memory used (kb):          N/A
  
                          Minor page faults:      1764504
                          Major page faults:          634
                 Voluntary context switches:         5984
