 vasp.6.4.3 19Mar24 (build Jul 11 2024 14:45:55) complex                        
  
 executed on             LinuxIFC date 2024.10.11  19:58:06
 running  208 mpi-ranks, with    1 threads/rank, on    2 nodes
 distrk:  each k-point on  104 cores,    2 groups
 distr:  one band on NCORE=   8 cores,   13 groups


--------------------------------------------------------------------------------------------------------


 INCAR:
   SYSTEM = CoO Bulk Cubic Fm3m
   ISTART = 0
   ICHARG = 2
   PREC = Accurate
   LASPH = .TRUE.
   ISMEAR = 0
   SIGMA = 0.03
   ENCUT = 600
   EDIFF = 1E-6
   NELM = 900
   LREAL = Auto
   LMAXMIX = 4
   ALGO = Normal
   NELMIN = 10
   ISIF = 2
   NSW = 0
   IBRION = -1
   EDIFFG = -0.02
   NCORE = 8
   KPAR = 2

 POTCAR:    PAW_PBE C 08Apr2002                   
 POTCAR:    PAW_PBE O 08Apr2002                   
 POTCAR:    PAW_PBE H 15Jun2001                   
 POTCAR:    PAW_PBE C 08Apr2002                   
   SHA256 =  253f7b50bb8d59471dbedb8285d89021f4a42ed1a2c5d38a03a736e69125dd95 C/POTCAR              
   COPYR  = (c) Copyright 08Apr2002 Georg Kresse                                                    
   COPYR  = This file is part of the software VASP. Any use, copying, and all other rights are regul
   COPYR  = If you do not have a valid VASP license, you may not use, copy or distribute this file. 
   VRHFIN =C: s2p2                                                                                  
   LEXCH  = PE                                                                                      
   EATOM  =   147.1560 eV,   10.8157 Ry                                                             
                                                                                                    
   TITEL  = PAW_PBE C 08Apr2002                                                                     
   LULTRA =        F    use ultrasoft PP ?                                                          
   IUNSCR =        1    unscreen: 0-lin 1-nonlin 2-no                                               
   RPACOR =    1.200    partial core radius                                                         
   POMASS =   12.011; ZVAL   =    4.000    mass and valenz                                          
   RCORE  =    1.500    outmost cutoff radius                                                       
   RWIGS  =    1.630; RWIGS  =    0.863    wigner-seitz radius (au A)                               
   ENMAX  =  400.000; ENMIN  =  300.000 eV                                                          
   ICORE  =        2    local potential                                                             
   LCOR   =        T    correct aug charges                                                         
   LPAW   =        T    paw PP                                                                      
   EAUG   =  644.873                                                                                
   DEXC   =    0.000                                                                                
   RMAX   =    1.529    core radius for proj-oper                                                   
   RAUG   =    1.300    factor for augmentation sphere                                              
   RDEP   =    1.501    radius for radial grids                                                     
   RDEPT  =    1.300    core radius for aug-charge                                                  
                                                                                                    
   Atomic configuration                                                                             
    4 entries                                                                                       
     n  l   j            E        occ.                                                              
     1  0  0.50      -273.3789   2.0000                                                             
     2  0  0.50       -13.7508   2.0000                                                             
     2  1  0.50        -5.2854   2.0000                                                             
     3  2  1.50        -5.4423   0.0000                                                             
   Description                                                                                      
     l       E           TYP  RCUT    TYP  RCUT                                                     
     0    -13.7508458     23  1.200                                                                 
     0     -8.2022199     23  1.200                                                                 
     1     -5.2854383     23  1.500                                                                 
     1     34.0145650     23  1.500                                                                 
     2     -5.4423304      7  1.500                                                                 
  local pseudopotential read in
  partial core-charges read in
  partial kinetic energy density read in
  atomic valenz-charges read in
  non local Contribution for L=           0  read in
    real space projection operators read in
  non local Contribution for L=           0  read in
    real space projection operators read in
  non local Contribution for L=           1  read in
    real space projection operators read in
  non local Contribution for L=           1  read in
    real space projection operators read in
    PAW grid and wavefunctions read in
 
   number of l-projection  operators is LMAX  =           4
   number of lm-projection operators is LMMAX =           8
 
 POTCAR:    PAW_PBE O 08Apr2002                   
   SHA256 =  818f92134a0a090dccd8ba1447fa70422a3b330e708bb4f08108d8ae51209ddf O/POTCAR              
   COPYR  = (c) Copyright 08Apr2002 Georg Kresse                                                    
   COPYR  = This file is part of the software VASP. Any use, copying, and all other rights are regul
   COPYR  = If you do not have a valid VASP license, you may not use, copy or distribute this file. 
   VRHFIN =O: s2p4                                                                                  
   LEXCH  = PE                                                                                      
   EATOM  =   432.3788 eV,   31.7789 Ry                                                             
                                                                                                    
   TITEL  = PAW_PBE O 08Apr2002                                                                     
   LULTRA =        F    use ultrasoft PP ?                                                          
   IUNSCR =        1    unscreen: 0-lin 1-nonlin 2-no                                               
   RPACOR =    1.200    partial core radius                                                         
   POMASS =   16.000; ZVAL   =    6.000    mass and valenz                                          
   RCORE  =    1.520    outmost cutoff radius                                                       
   RWIGS  =    1.550; RWIGS  =    0.820    wigner-seitz radius (au A)                               
   ENMAX  =  400.000; ENMIN  =  300.000 eV                                                          
   ICORE  =        2    local potential                                                             
   LCOR   =        T    correct aug charges                                                         
   LPAW   =        T    paw PP                                                                      
   EAUG   =  605.392                                                                                
   DEXC   =    0.000                                                                                
   RMAX   =    1.553    core radius for proj-oper                                                   
   RAUG   =    1.300    factor for augmentation sphere                                              
   RDEP   =    1.550    radius for radial grids                                                     
   RDEPT  =    1.329    core radius for aug-charge                                                  
                                                                                                    
   Atomic configuration                                                                             
    4 entries                                                                                       
     n  l   j            E        occ.                                                              
     1  0  0.50      -514.6923   2.0000                                                             
     2  0  0.50       -23.9615   2.0000                                                             
     2  1  0.50        -9.0305   4.0000                                                             
     3  2  1.50        -9.5241   0.0000                                                             
   Description                                                                                      
     l       E           TYP  RCUT    TYP  RCUT                                                     
     0    -23.9615318     23  1.200                                                                 
     0     -9.5240782     23  1.200                                                                 
     1     -9.0304911     23  1.520                                                                 
     1      8.1634956     23  1.520                                                                 
     2     -9.5240782      7  1.500                                                                 
  local pseudopotential read in
  partial core-charges read in
  partial kinetic energy density read in
  kinetic energy density of atom read in
  atomic valenz-charges read in
  non local Contribution for L=           0  read in
    real space projection operators read in
  non local Contribution for L=           0  read in
    real space projection operators read in
  non local Contribution for L=           1  read in
    real space projection operators read in
  non local Contribution for L=           1  read in
    real space projection operators read in
    PAW grid and wavefunctions read in
 
   number of l-projection  operators is LMAX  =           4
   number of lm-projection operators is LMMAX =           8
 
 POTCAR:    PAW_PBE H 15Jun2001                   
   SHA256 =  030f79b5d3ab3cf0e668861823c8fb652ff669f3e15e46930bd03bfd63a607b6 H/POTCAR              
   COPYR  = (c) Copyright 15Jun2001 Georg Kresse                                                    
   COPYR  = This file is part of the software VASP. Any use, copying, and all other rights are regul
   COPYR  = If you do not have a valid VASP license, you may not use, copy or distribute this file. 
   VRHFIN =H: ultrasoft test                                                                        
   LEXCH  = PE                                                                                      
   EATOM  =    12.4884 eV,    0.9179 Ry                                                             
                                                                                                    
   TITEL  = PAW_PBE H 15Jun2001                                                                     
   LULTRA =        F    use ultrasoft PP ?                                                          
   IUNSCR =        0    unscreen: 0-lin 1-nonlin 2-no                                               
   RPACOR =    0.000    partial core radius                                                         
   POMASS =    1.000; ZVAL   =    1.000    mass and valenz                                          
   RCORE  =    1.100    outmost cutoff radius                                                       
   RWIGS  =    0.700; RWIGS  =    0.370    wigner-seitz radius (au A)                               
   ENMAX  =  250.000; ENMIN  =  200.000 eV                                                          
   RCLOC  =    0.701    cutoff for local pot                                                        
   LCOR   =        T    correct aug charges                                                         
   LPAW   =        T    paw PP                                                                      
   EAUG   =  400.000                                                                                
   RMAX   =    1.123    core radius for proj-oper                                                   
   RAUG   =    1.200    factor for augmentation sphere                                              
   RDEP   =    1.112    radius for radial grids                                                     
   RDEPT  =    0.926    core radius for aug-charge                                                  
                                                                                                    
   Atomic configuration                                                                             
    2 entries                                                                                       
     n  l   j            E        occ.                                                              
     1  0  0.50        -6.4927   1.0000                                                             
     2  1  0.50        -3.4015   0.0000                                                             
   Description                                                                                      
     l       E           TYP  RCUT    TYP  RCUT                                                     
     0     -6.4927494     23  1.100                                                                 
     0      6.8029130     23  1.100                                                                 
     1     -4.0817478     23  1.100                                                                 
  local pseudopotential read in
  atomic valenz-charges read in
  non local Contribution for L=           0  read in
    real space projection operators read in
  non local Contribution for L=           0  read in
    real space projection operators read in
  non local Contribution for L=           1  read in
    real space projection operators read in
    PAW grid and wavefunctions read in
 
   number of l-projection  operators is LMAX  =           3
   number of lm-projection operators is LMMAX =           5
 
 Optimization of the real space projectors (new method)

 maximal supplied QI-value         = 25.13
 optimisation between [QCUT,QGAM] = [ 12.32, 24.88] = [ 42.47,173.37] Ry 
 Optimized for a Real-space Cutoff    1.16 Angstroem

   l    n(q)    QCUT    max X(q) W(low)/X(q) W(high)/X(q)  e(spline) 
   0      9    12.315   115.676    0.19E-03    0.80E-05    0.34E-06
   0      9    12.315    87.132    0.19E-03    0.82E-05    0.34E-06
   1      8    12.315     4.429    0.18E-03    0.13E-03    0.22E-06
   1      8    12.315     2.733    0.14E-03    0.10E-03    0.18E-06
 Optimization of the real space projectors (new method)

 maximal supplied QI-value         = 24.76
 optimisation between [QCUT,QGAM] = [ 12.38, 25.00] = [ 42.90,175.06] Ry 
 Optimized for a Real-space Cutoff    1.16 Angstroem

   l    n(q)    QCUT    max X(q) W(low)/X(q) W(high)/X(q)  e(spline) 
   0      9    12.378    20.381    0.16E-03    0.67E-05    0.31E-06
   0      9    12.378    15.268    0.17E-03    0.81E-05    0.33E-06
   1      8    12.378     5.964    0.20E-03    0.16E-03    0.30E-06
   1      8    12.378     5.382    0.18E-03    0.14E-03    0.26E-06
 Optimization of the real space projectors (new method)

 maximal supplied QI-value         = 34.20
 optimisation between [QCUT,QGAM] = [ 12.31, 24.97] = [ 42.46,174.58] Ry 
 Optimized for a Real-space Cutoff    1.13 Angstroem

   l    n(q)    QCUT    max X(q) W(low)/X(q) W(high)/X(q)  e(spline) 
   0      8    12.313    19.460    0.10E-03    0.25E-03    0.27E-06
   0      8    12.313    12.209    0.92E-04    0.23E-03    0.26E-06
   1      8    12.313     4.655    0.24E-03    0.28E-03    0.15E-06
  PAW_PBE C 08Apr2002                   :
 energy of atom  1       EATOM= -147.1560
 kinetic energy error for atom=    0.0057 (will be added to EATOM!!)
  PAW_PBE O 08Apr2002                   :
 energy of atom  2       EATOM= -432.3788
 kinetic energy error for atom=    0.0168 (will be added to EATOM!!)
  PAW_PBE H 15Jun2001                   :
 energy of atom  3       EATOM=  -12.4884
 kinetic energy error for atom=    0.0004 (will be added to EATOM!!)
 
 
 POSCAR:  Generated by VASPKIT code
  positions in direct lattice
  No initial velocities read in


 exchange-correlation table for PE
   RHO(1)=    0.500       N(1)  =     2000
   RHO(2)=  100.500       N(2)  =     4000
 


--------------------------------------------------------------------------------------------------------


 ion  position               nearest neighbor table
   1  0.175  0.173  0.561-   4 1.41   3 1.41   2 1.48
   2  0.173  0.174  0.530-   6 1.41   5 1.41   1 1.48
   3  0.109  0.239  0.577-  19 1.09   7 1.39   1 1.41
   4  0.242  0.107  0.577-  20 1.09   8 1.39   1 1.41
   5  0.239  0.109  0.514-  21 1.09   9 1.39   2 1.41
   6  0.104  0.240  0.515-  22 1.09  10 1.39   2 1.41
   7  0.110  0.238  0.607-  23 1.09   3 1.39  11 1.40
   8  0.245  0.105  0.606-  24 1.09   4 1.39  11 1.40
   9  0.238  0.110  0.485-  25 1.09   5 1.39  12 1.40
  10  0.102  0.242  0.486-  26 1.09   6 1.39  12 1.40
  11  0.178  0.171  0.621-   7 1.40   8 1.40  13 1.48
  12  0.169  0.176  0.471-   9 1.40  10 1.40  14 1.48
  13  0.177  0.174  0.652-  16 1.22  15 1.37  11 1.48
  14  0.170  0.174  0.439-  18 1.22  17 1.37  12 1.48
  15  0.247  0.105  0.664-  27 0.98  13 1.37
  16  0.121  0.230  0.667-  13 1.22
  17  0.101  0.242  0.428-  28 0.98  14 1.37
  18  0.227  0.118  0.425-  14 1.22
  19  0.055  0.292  0.567-   3 1.09
  20  0.295  0.054  0.565-   4 1.09
  21  0.294  0.056  0.525-   5 1.09
  22  0.051  0.292  0.526-   6 1.09
  23  0.059  0.289  0.619-   7 1.09
  24  0.298  0.053  0.617-   8 1.09
  25  0.289  0.059  0.473-   9 1.09
  26  0.049  0.293  0.475-  10 1.09
  27  0.239  0.113  0.684-  15 0.98
  28  0.108  0.234  0.407-  17 0.98
 
  LATTYP: Found a simple tetragonal cell.
 ALAT       =    12.7800006866
 C/A-ratio  =     3.7197090366
  
  Lattice vectors:
  
 A1 = (  12.7800006866,   0.0000000000,   0.0000000000)
 A2 = (   0.0000000000,  12.7800006866,   0.0000000000)
 A3 = (   0.0000000000,   0.0000000000,  47.5378840413)


Analysis of symmetry for initial positions (statically):
=====================================================================
 Subroutine PRICEL returns:
 Original cell was already a primitive cell.
 

 Routine SETGRP: Setting up the symmetry group for a 
 simple tetragonal supercell.


 Subroutine GETGRP returns: Found  1 space group operations
 (whereof  1 operations were pure point group operations)
 out of a pool of 16 trial point group operations.


The static configuration has the point symmetry C_1 .


Analysis of symmetry for dynamics (positions and initial velocities):
=====================================================================
 Subroutine PRICEL returns:
 Original cell was already a primitive cell.
 

 Routine SETGRP: Setting up the symmetry group for a 
 simple tetragonal supercell.


 Subroutine GETGRP returns: Found  1 space group operations
 (whereof  1 operations were pure point group operations)
 out of a pool of 16 trial point group operations.


The dynamic configuration has the point symmetry C_1 .


Analysis of constrained symmetry for selective dynamics:
=====================================================================
 Subroutine PRICEL returns:
 Original cell was already a primitive cell.
 

 Routine SETGRP: Setting up the symmetry group for a 
 simple tetragonal supercell.


 Subroutine GETGRP returns: Found  1 space group operations
 (whereof  1 operations were pure point group operations)
 out of a pool of 16 trial point group operations.


The constrained configuration has the point symmetry C_1 .


 Subroutine INISYM returns: Found  1 space group operations
 (whereof  1 operations are pure point group operations),
 and found     1 'primitive' translations


----------------------------------------------------------------------------------------

                                     Primitive cell                                     

  volume of cell :    7764.2874

  direct lattice vectors                    reciprocal lattice vectors
    12.780000687  0.000000000  0.000000000     0.078247257  0.000000000  0.000000000
     0.000000000 12.780000687  0.000000000     0.000000000  0.078247257  0.000000000
     0.000000000  0.000000000 47.537884041     0.000000000  0.000000000  0.021035854

  length of vectors
    12.780000687 12.780000687 47.537884041     0.078247257  0.078247257  0.021035854

  position of ions in fractional coordinates (direct lattice)
     0.174582300  0.173233421  0.561484427
     0.172737257  0.174175015  0.530265600
     0.108545174  0.238922990  0.577411237
     0.242442829  0.106638084  0.576522755
     0.239251487  0.108950719  0.514344105
     0.104435084  0.240301698  0.515221916
     0.110152357  0.238196021  0.606608729
     0.244559370  0.105463243  0.605753991
     0.237658671  0.109645877  0.485147239
     0.102414200  0.241527073  0.485989642
     0.178251223  0.171419993  0.621168491
     0.169178755  0.176011366  0.470581228
     0.177057187  0.173656986  0.652341196
     0.170488817  0.173820752  0.439408615
     0.246792162  0.105056470  0.664101140
     0.120806108  0.229812277  0.666684562
     0.100573618  0.242202015  0.427634519
     0.226989559  0.117880347  0.425075561
     0.054544916  0.292005772  0.566952815
     0.295102706  0.054217605  0.565354307
     0.293673775  0.056313916  0.524806462
     0.051312330  0.292268229  0.526386066
     0.058758437  0.289310733  0.618673683
     0.297840092  0.053210718  0.616789253
     0.289392762  0.058858189  0.473087647
     0.048830993  0.293451518  0.474948048
     0.239072693  0.113424107  0.684462186
     0.108403059  0.233873023  0.407275225

  ion indices of the primitive-cell ions
   primitive index   ion index
                 1           1
                 2           2
                 3           3
                 4           4
                 5           5
                 6           6
                 7           7
                 8           8
                 9           9
                10          10
                11          11
                12          12
                13          13
                14          14
                15          15
                16          16
                17          17
                18          18
                19          19
                20          20
                21          21
                22          22
                23          23
                24          24
                25          25
                26          26
                27          27
                28          28

----------------------------------------------------------------------------------------

 
 
 KPOINTS: KPOINTS                                 

Automatic generation of k-mesh.
 Grid dimensions read from file:
 generate k-points for:    2    2    1

 Generating k-lattice:

  Cartesian coordinates                     Fractional coordinates (reciprocal lattice)
     0.039123629  0.000000000  0.000000000     0.500000000  0.000000000  0.000000000
     0.000000000  0.039123629  0.000000000     0.000000000  0.500000000  0.000000000
     0.000000000  0.000000000  0.021035854     0.000000000  0.000000000  1.000000000

  Length of vectors
     0.039123629  0.039123629  0.021035854

  Shift w.r.t. Gamma in fractional coordinates (k-lattice)
     0.000000000  0.000000000  0.000000000

 
 Subroutine IBZKPT returns following result:
 ===========================================
 
 Found      4 irreducible k-points:
 
 Following reciprocal coordinates:
            Coordinates               Weight
  0.000000  0.000000  0.000000      1.000000
  0.500000  0.000000  0.000000      1.000000
  0.000000  0.500000  0.000000      1.000000
  0.500000  0.500000  0.000000      1.000000
 
 Following cartesian coordinates:
            Coordinates               Weight
  0.000000  0.000000  0.000000      1.000000
  0.039124  0.000000  0.000000      1.000000
  0.000000  0.039124  0.000000      1.000000
  0.039124  0.039124  0.000000      1.000000
 


--------------------------------------------------------------------------------------------------------




 Dimension of arrays:
   k-points           NKPTS =      4   k-points in BZ     NKDIM =      4   number of bands    NBANDS=     65
   number of dos      NEDOS =    301   number of ions     NIONS =     28
   non local maximal  LDIM  =      4   non local SUM 2l+1 LMDIM =      8
   total plane-waves  NPLWV = ******
   max r-space proj   IRMAX =   3831   max aug-charges    IRDMAX=   7683
   dimension x,y,z NGX =   108 NGY =  108 NGZ =  384
   dimension x,y,z NGXF=   216 NGYF=  216 NGZF=  768
   support grid    NGXF=   216 NGYF=  216 NGZF=  768
   ions per type =              14   4  10
   NGX,Y,Z   is equivalent  to a cutoff of  14.05, 14.05, 13.43 a.u.
   NGXF,Y,Z  is equivalent  to a cutoff of  28.10, 28.10, 26.86 a.u.

 SYSTEM =  CoO Bulk Cubic Fm3m                     
 POSCAR =   Generated by VASPKIT code              

 Startparameter for this run:
   NWRITE =      2    write-flag & timer
   PREC   = accura    normal or accurate (medium, high low for compatibility)
   ISTART =      0    job   : 0-new  1-cont  2-samecut
   ICHARG =      2    charge: 1-file 2-atom 10-const
   ISPIN  =      1    spin polarized calculation?
   LNONCOLLINEAR =      F non collinear calculations
   LSORBIT =      F    spin-orbit coupling
   INIWAV =      1    electr: 0-lowe 1-rand  2-diag
   LASPH  =      T    aspherical Exc in radial PAW
 Electronic Relaxation 1
   ENCUT  =  600.0 eV  44.10 Ry    6.64 a.u.  25.52 25.52 94.94*2*pi/ulx,y,z
   ENINI  =  600.0     initial cutoff
   ENAUG  =  644.9 eV  augmentation charge cutoff
   NELM   =    900;   NELMIN= 10; NELMDL= -5     # of ELM steps 
   EDIFF  = 0.1E-05   stopping-criterion for ELM
   LREAL  =      T    real-space projection
   NLSPLINE    = F    spline interpolate recip. space projectors
   LCOMPAT=      F    compatible to vasp.4.4
   GGA_COMPAT  = T    GGA compatible to vasp.4.4-vasp.4.6
   LMAXPAW     = -100 max onsite density
   LMAXMIX     =    4 max onsite mixed and CHGCAR
   VOSKOWN=      0    Vosko Wilk Nusair interpolation
   ROPT   =   -0.00025  -0.00025  -0.00025
 Ionic relaxation
   EDIFFG = -.2E-01   stopping-criterion for IOM
   NSW    =      0    number of steps for IOM
   NBLOCK =      1;   KBLOCK =      1    inner block; outer block 
   IBRION =     -1    ionic relax: 0-MD 1-quasi-New 2-CG
   NFREE  =      0    steps in history (QN), initial steepest desc. (CG)
   ISIF   =      2    stress and relaxation
   IWAVPR =     10    prediction:  0-non 1-charg 2-wave 3-comb
   ISYM   =      2    0-nonsym 1-usesym 2-fastsym
   LCORR  =      T    Harris-Foulkes like correction to forces

   POTIM  = 0.5000    time-step for ionic-motion
   TEIN   =    0.0    initial temperature
   TEBEG  =    0.0;   TEEND  =   0.0 temperature during run
   SMASS  =  -3.00    Nose mass-parameter (am)
   estimated Nose-frequenzy (Omega)   =  0.10E-29 period in steps = 0.13E+47 mass=  -0.373E-26a.u.
   SCALEE = 1.0000    scale energy and forces
   NPACO  =    256;   APACO  = 10.0  distance and # of slots for P.C.
   PSTRESS=    0.0 pullay stress

  Mass of Ions in am
   POMASS =  12.01 16.00  1.00
  Ionic Valenz
   ZVAL   =   4.00  6.00  1.00
  Atomic Wigner-Seitz radii
   RWIGS  =  -1.00 -1.00 -1.00
  virtual crystal weights 
   VCA    =   1.00  1.00  1.00
   NELECT =      90.0000    total number of electrons
   NUPDOWN=      -1.0000    fix difference up-down

 DOS related values:
   EMIN   =  10.00;   EMAX   =-10.00  energy-range for DOS
   EFERMI =   0.00;   METHOD = LEGACY      
   ISMEAR =     0;   SIGMA  =   0.03  broadening in eV -4-tet -1-fermi 0-gaus

 Electronic relaxation 2 (details)
   IALGO  =     38    algorithm
   LDIAG  =      T    sub-space diagonalisation (order eigenvalues)
   LSUBROT=      F    optimize rotation matrix (better conditioning)
   TURBO    =      0    0=normal 1=particle mesh
   IRESTART =      0    0=no restart 2=restart with 2 vectors
   NREBOOT  =      0    no. of reboots
   NMIN     =      0    reboot dimension
   EREF     =   0.00    reference energy to select bands
   IMIX   =      4    mixing-type and parameters
     AMIX     =   0.40;   BMIX     =  1.00
     AMIX_MAG =   1.60;   BMIX_MAG =  1.00
     AMIN     =   0.10
     WC   =   100.;   INIMIX=   1;  MIXPRE=   1;  MAXMIX= -45

 Intra band minimization:
   WEIMIN = 0.0000     energy-eigenvalue tresh-hold
   EBREAK =  0.38E-08  absolut break condition
   DEPER  =   0.30     relativ break condition  

   TIME   =   0.40     timestep for ELM

  volume/ion in A,a.u.               =     277.30      1871.29
  Fermi-wavevector in a.u.,A,eV,Ry     =   0.370500  0.700144  1.867677  0.137270
  Thomas-Fermi vector in A             =   1.297921
 
 Write flags
   LWAVE        =      T    write WAVECAR
   LDOWNSAMPLE  =      F    k-point downsampling of WAVECAR
   LCHARG       =      T    write CHGCAR
   LVTOT        =      F    write LOCPOT, total local potential
   LVHAR        =      F    write LOCPOT, Hartree potential only
   WRT_POTENTIAL= false  ! write potential to hdf5 file
   LELF         =      F    write electronic localiz. function (ELF)
   LORBIT       =      0    0 simple, 1 ext, 2 COOP (PROOUT), +10 PAW based schemes


 Dipole corrections
   LMONO      =      F    monopole corrections only (constant potential shift)
   LDIPOL     =      F    correct potential (dipole corrections)
   IDIPOL     =      0    1-x, 2-y, 3-z, 4-all directions 
   EPSILON    =  1.0000000 bulk dielectric constant
   LVACPOTAV  =      F  vacuum potentials using an averaging scheme for the charge density
   VACPOTFLAT =  0.1000000 required flatness to determine vacuum potential
 Exchange correlation treatment:
   GGA     = PE    functional components
   XC_C    = 1    coefficients multiplying the functional components
   LIBXC   =     F    Libxc                    
   VOSKOWN =     0    Vosko Wilk Nusair interpolation
   LHFCALC =     F    Hartree Fock is set to
   LHFONE  =     F    Hartree Fock one center treatment
   AEXX    =    0.0000 exact exchange contribution

 Parameters of functionals:
   PE:
     No parameter
 
 Van der Waals corrections
   IVDW    =     0    specifies the selected vdW correction

 Linear response parameters
   LEPSILON=     F    determine dielectric tensor
   LRPA    =     F    only Hartree local field effects (RPA)
   LNABLA  =     F    use nabla operator in PAW spheres
   LVEL    =     F    velocity operator in full k-point grid
   CSHIFT  =0.1000    complex shift for real part using Kramers Kronig
   OMEGAMAX=  -1.0    maximum frequency
   DEG_THRESHOLD= 0.2000000E-02 threshold for treating states as degnerate
   RTIME   =   -0.100 relaxation time in fs
  (WPLASMAI=    0.000 imaginary part of plasma frequency in eV, 0.658/RTIME)
   DFIELD  = 0.0000000 0.0000000 0.0000000 field for delta impulse in time
 
  Optional k-point grid parameters
   LKPOINTS_OPT  =     F    use optional k-point grid
   KPOINTS_OPT_MODE=     1    mode for optional k-point grid
 
 Orbital magnetization related:
   ORBITALMAG=     F  switch on orbital magnetization
   LCHIMAG   =     F  perturbation theory with respect to B field
   DQ        =  0.001000  dq finite difference perturbation B field
   LLRAUG    =     F  two centre corrections for induced B field
   LBONE     =     F  B-component reconstruction in AE one-centre
   LVGVCALC  =     T  calculate vGv susceptibility
   LVGVAPPL  =     F  apply vGv susceptibility instead of pGv for G=0

 Random number generation:
   RANDOM_GENERATOR = DEFAULT
   PCG_SEED         = not used


--------------------------------------------------------------------------------------------------------


 Static calculation
 charge density and potential will be updated during run
 non-spin polarized calculation
 Variant of blocked Davidson
 Davidson routine will perform the subspace rotation
 perform sub-space diagonalisation
    after iterative eigenvector-optimisation
 modified Broyden-mixing scheme, WC =      100.0
 initial mixing is a Kerker type mixing with AMIX =  0.4000 and BMIX =      1.0000
 Hartree-type preconditioning will be used
 using additional bands           20
 real space projection scheme for non local part
 use partial core corrections
 calculate Harris-corrections to forces 
   (improved forces if not selfconsistent)
 use gradient corrections 
 use of overlap-Matrix (Vanderbilt PP)
 Gauss-broadening in eV      SIGMA  =   0.03


--------------------------------------------------------------------------------------------------------


  energy-cutoff  :      600.00
  volume of cell :     7764.29
      direct lattice vectors                 reciprocal lattice vectors
    12.780000687  0.000000000  0.000000000     0.078247257  0.000000000  0.000000000
     0.000000000 12.780000687  0.000000000     0.000000000  0.078247257  0.000000000
     0.000000000  0.000000000 47.537884041     0.000000000  0.000000000  0.021035854

  length of vectors
    12.780000687 12.780000687 47.537884041     0.078247257  0.078247257  0.021035854


 
 k-points in units of 2pi/SCALE and weight: KPOINTS                                 
   0.00000000  0.00000000  0.00000000       0.250
   0.03912363  0.00000000  0.00000000       0.250
   0.00000000  0.03912363  0.00000000       0.250
   0.03912363  0.03912363  0.00000000       0.250
 
 k-points in reciprocal lattice and weights: KPOINTS                                 
   0.00000000  0.00000000  0.00000000       0.250
   0.50000000  0.00000000  0.00000000       0.250
   0.00000000  0.50000000  0.00000000       0.250
   0.50000000  0.50000000  0.00000000       0.250
 
 position of ions in fractional coordinates (direct lattice) 
   0.17458230  0.17323342  0.56148443
   0.17273726  0.17417501  0.53026560
   0.10854517  0.23892299  0.57741124
   0.24244283  0.10663808  0.57652275
   0.23925149  0.10895072  0.51434411
   0.10443508  0.24030170  0.51522192
   0.11015236  0.23819602  0.60660873
   0.24455937  0.10546324  0.60575399
   0.23765867  0.10964588  0.48514724
   0.10241420  0.24152707  0.48598964
   0.17825122  0.17141999  0.62116849
   0.16917876  0.17601137  0.47058123
   0.17705719  0.17365699  0.65234120
   0.17048882  0.17382075  0.43940862
   0.24679216  0.10505647  0.66410114
   0.12080611  0.22981228  0.66668456
   0.10057362  0.24220202  0.42763452
   0.22698956  0.11788035  0.42507556
   0.05454492  0.29200577  0.56695281
   0.29510271  0.05421760  0.56535431
   0.29367378  0.05631392  0.52480646
   0.05131233  0.29226823  0.52638607
   0.05875844  0.28931073  0.61867368
   0.29784009  0.05321072  0.61678925
   0.28939276  0.05885819  0.47308765
   0.04883099  0.29345152  0.47494805
   0.23907269  0.11342411  0.68446219
   0.10840306  0.23387302  0.40727522
 
 position of ions in cartesian coordinates  (Angst):
   2.23116191  2.21392324 26.69178159
   2.20758227  2.22595681 25.20770461
   1.38720740  3.05343597 27.44890843
   3.09841952  1.36283479 27.40667186
   3.05763416  1.39239026 24.45083043
   1.33468045  3.07105587 24.49255972
   1.40774719  3.04414532 28.83689540
   3.12546891  1.34782032 28.79626298
   3.03727797  1.40127439 23.06287320
   1.30885354  3.08671616 23.10291926
   2.27805076  2.19074763 29.52903568
   2.16210461  2.24942538 22.37043585
   2.26279097  2.21933640 31.01092012
   2.17884720  2.22142932 20.88855580
   3.15400400  1.34262176 31.56996297
   1.54390214  2.93700105 31.69277340
   1.28533091  3.09534192 20.32884020
   2.90092672  1.50651091 20.20719273
   0.69708407  3.73183397 26.95173717
   3.77141278  0.69290103 26.87574748
   3.75315105  0.71969188 24.94818871
   0.65577162  3.73518816 25.02327978
   0.75093287  3.69739136 29.41043781
   3.80639658  0.68003301 29.32085599
   3.69843970  0.75220770 22.48958568
   0.62406013  3.75031060 22.57802522
   3.05534918  1.44956017 32.53788404
   1.38539117  2.98889740 19.36100240
 


--------------------------------------------------------------------------------------------------------


 k-point     1 :   0.0000 0.0000 0.0000  plane waves:  259049
 k-point     2 :   0.5000 0.0000 0.0000  plane waves:  259176
 k-point     3 :   0.0000 0.5000 0.0000  plane waves:  259176
 k-point     4 :   0.5000 0.5000 0.0000  plane waves:  259104

 maximum and minimum number of plane-waves per node :     32459    32309

 maximum number of plane-waves:    259176
 maximum index in each direction: 
   IXMAX=   25   IYMAX=   25   IZMAX=   94
   IXMIN=  -26   IYMIN=  -26   IZMIN=  -94


 real space projection operators:
  total allocation   :       5439.64 KBytes
  max/ min on nodes  :        705.32        664.27


 parallel 3D FFT for wavefunctions:
    minimum data exchange during FFTs selected (reduces bandwidth)
 parallel 3D FFT for charge:
    minimum data exchange during FFTs selected (reduces bandwidth)


 total amount of memory used by VASP MPI-rank0   130903. kBytes
=======================================================================

   base      :      30000. kBytes
   nonlr-proj:       2650. kBytes
   fftplans  :      32701. kBytes
   grid      :      55161. kBytes
   one-center:         12. kBytes
   wavefun   :      10379. kBytes
 
     INWAV:  cpu time      0.0000: real time      0.0002
 Broyden mixing: mesh for mixing (old mesh)
   NGX = 51   NGY = 51   NGZ =189
  (NGX  =216   NGY  =216   NGZ  =768)
  gives a total of 491589 points

 initial charge density was supplied:
 charge density of overlapping atoms calculated
 number of electron      90.0000000 magnetization 
 keeping initial charge density in first step


--------------------------------------------------------------------------------------------------------


 Maximum index for non-local projection operator          473
 Maximum index for augmentation-charges            0 (set IRDMAX)


--------------------------------------------------------------------------------------------------------


 First call to EWALD:  gamma=   0.090
 Maximum number of real-space cells 4x 4x 1
 Maximum number of reciprocal cells 2x 2x 6

    FEWALD:  cpu time      0.0112: real time      0.0120


--------------------------------------- Ionic step        1  -------------------------------------------




--------------------------------------- Iteration      1(   1)  ---------------------------------------


    POTLOK:  cpu time      0.4061: real time      0.4138
    SETDIJ:  cpu time      0.0236: real time      0.0249
     EDDAV:  cpu time      2.1930: real time      2.2364
       DOS:  cpu time      0.0060: real time      0.0073
    --------------------------------------------
      LOOP:  cpu time      2.6288: real time      2.6825

 eigenvalue-minimisations  :   624
 total energy-change (2. order) : 0.9105416E+03  (-0.2174577E+04)
 number of electron      90.0000000 magnetization 
 augmentation part       90.0000000 magnetization 

 Free energy of the ion-electron system (eV)
  ---------------------------------------------------
  alpha Z        PSCENC =         4.68890858
  Ewald energy   TEWEN  =     13805.99061243
  -Hartree energ DENC   =    -16656.83718285
  -exchange      EXHF   =         0.00000000
  -V(xc)+E(xc)   XCENC  =       316.19882938
  PAW double counting   =      2926.84683124    -2942.10197307
  entropy T*S    EENTRO =        -0.00928273
  eigenvalues    EBANDS =      -458.66698097
  atomic energy  EATOM  =      3914.43183447
  Solvation  Ediel_sol  =         0.00000000
  ---------------------------------------------------
  free energy    TOTEN  =       910.54159647 eV

  energy without entropy =      910.55087920  energy(sigma->0) =      910.54623784


--------------------------------------------------------------------------------------------------------




--------------------------------------- Iteration      1(   2)  ---------------------------------------


     EDDAV:  cpu time      5.7850: real time      5.8292
       DOS:  cpu time      0.0012: real time      0.0012
    --------------------------------------------
      LOOP:  cpu time      5.7861: real time      5.8304

 eigenvalue-minimisations  :   858
 total energy-change (2. order) :-0.6145054E+03  (-0.5705758E+03)
 number of electron      90.0000000 magnetization 
 augmentation part       90.0000000 magnetization 

 Free energy of the ion-electron system (eV)
  ---------------------------------------------------
  alpha Z        PSCENC =         4.68890858
  Ewald energy   TEWEN  =     13805.99061243
  -Hartree energ DENC   =    -16656.83718285
  -exchange      EXHF   =         0.00000000
  -V(xc)+E(xc)   XCENC  =       316.19882938
  PAW double counting   =      2926.84683124    -2942.10197307
  entropy T*S    EENTRO =        -0.00242262
  eigenvalues    EBANDS =     -1073.17920269
  atomic energy  EATOM  =      3914.43183447
  Solvation  Ediel_sol  =         0.00000000
  ---------------------------------------------------
  free energy    TOTEN  =       296.03623486 eV

  energy without entropy =      296.03865748  energy(sigma->0) =      296.03744617


--------------------------------------------------------------------------------------------------------




--------------------------------------- Iteration      1(   3)  ---------------------------------------


     EDDAV:  cpu time      2.3963: real time      2.4188
       DOS:  cpu time      0.0007: real time      0.0007
    --------------------------------------------
      LOOP:  cpu time      2.3970: real time      2.4195

 eigenvalue-minimisations  :   715
 total energy-change (2. order) :-0.4332282E+03  (-0.4273198E+03)
 number of electron      90.0000000 magnetization 
 augmentation part       90.0000000 magnetization 

 Free energy of the ion-electron system (eV)
  ---------------------------------------------------
  alpha Z        PSCENC =         4.68890858
  Ewald energy   TEWEN  =     13805.99061243
  -Hartree energ DENC   =    -16656.83718285
  -exchange      EXHF   =         0.00000000
  -V(xc)+E(xc)   XCENC  =       316.19882938
  PAW double counting   =      2926.84683124    -2942.10197307
  entropy T*S    EENTRO =        -0.00000000
  eigenvalues    EBANDS =     -1506.40981854
  atomic energy  EATOM  =      3914.43183447
  Solvation  Ediel_sol  =         0.00000000
  ---------------------------------------------------
  free energy    TOTEN  =      -137.19195837 eV

  energy without entropy =     -137.19195837  energy(sigma->0) =     -137.19195837


--------------------------------------------------------------------------------------------------------




--------------------------------------- Iteration      1(   4)  ---------------------------------------


     EDDAV:  cpu time      2.3262: real time      2.3508
       DOS:  cpu time      0.0009: real time      0.0009
    --------------------------------------------
      LOOP:  cpu time      2.3271: real time      2.3518

 eigenvalue-minimisations  :   689
 total energy-change (2. order) :-0.6931684E+02  (-0.6913097E+02)
 number of electron      90.0000000 magnetization 
 augmentation part       90.0000000 magnetization 

 Free energy of the ion-electron system (eV)
  ---------------------------------------------------
  alpha Z        PSCENC =         4.68890858
  Ewald energy   TEWEN  =     13805.99061243
  -Hartree energ DENC   =    -16656.83718285
  -exchange      EXHF   =         0.00000000
  -V(xc)+E(xc)   XCENC  =       316.19882938
  PAW double counting   =      2926.84683124    -2942.10197307
  entropy T*S    EENTRO =        -0.00000000
  eigenvalues    EBANDS =     -1575.72665706
  atomic energy  EATOM  =      3914.43183447
  Solvation  Ediel_sol  =         0.00000000
  ---------------------------------------------------
  free energy    TOTEN  =      -206.50879688 eV

  energy without entropy =     -206.50879688  energy(sigma->0) =     -206.50879688


--------------------------------------------------------------------------------------------------------




--------------------------------------- Iteration      1(   5)  ---------------------------------------


     EDDAV:  cpu time      2.1456: real time      2.1612
       DOS:  cpu time      0.0010: real time      0.0010
    CHARGE:  cpu time      0.2471: real time      0.2508
    MIXING:  cpu time      0.0134: real time      0.0135
    --------------------------------------------
      LOOP:  cpu time      2.4071: real time      2.4264

 eigenvalue-minimisations  :   624
 total energy-change (2. order) :-0.1114557E+01  (-0.1108081E+01)
 number of electron      90.0000001 magnetization 
 augmentation part        4.6195557 magnetization 

 Broyden mixing:
  rms(total) = 0.22928E+01    rms(broyden)= 0.22925E+01
  rms(prec ) = 0.23274E+01
  weight for this iteration     100.00

 Free energy of the ion-electron system (eV)
  ---------------------------------------------------
  alpha Z        PSCENC =         4.68890858
  Ewald energy   TEWEN  =     13805.99061243
  -Hartree energ DENC   =    -16656.83718285
  -exchange      EXHF   =         0.00000000
  -V(xc)+E(xc)   XCENC  =       316.19882938
  PAW double counting   =      2926.84683124    -2942.10197307
  entropy T*S    EENTRO =        -0.00000000
  eigenvalues    EBANDS =     -1576.84121395
  atomic energy  EATOM  =      3914.43183447
  Solvation  Ediel_sol  =         0.00000000
  ---------------------------------------------------
  free energy    TOTEN  =      -207.62335377 eV

  energy without entropy =     -207.62335377  energy(sigma->0) =     -207.62335377


--------------------------------------------------------------------------------------------------------




--------------------------------------- Iteration      1(   6)  ---------------------------------------


    POTLOK:  cpu time      0.3868: real time      0.4011
    SETDIJ:  cpu time      0.0127: real time      0.0128
     EDDAV:  cpu time      2.4336: real time      2.4513
       DOS:  cpu time      0.0003: real time      0.0003
    CHARGE:  cpu time      0.2441: real time      0.2455
    MIXING:  cpu time      0.0116: real time      0.0117
    --------------------------------------------
      LOOP:  cpu time      3.0891: real time      3.1227

 eigenvalue-minimisations  :   715
 total energy-change (2. order) : 0.1342584E+02  (-0.2762626E+01)
 number of electron      90.0000002 magnetization 
 augmentation part        4.1422098 magnetization 

 Broyden mixing:
  rms(total) = 0.11994E+01    rms(broyden)= 0.11993E+01
  rms(prec ) = 0.12138E+01
  weight for this iteration     100.00

 eigenvalues of (default mixing * dielectric matrix)
  average eigenvalue GAMMA=   1.3279
  1.3279

 Free energy of the ion-electron system (eV)
  ---------------------------------------------------
  alpha Z        PSCENC =         4.68890858
  Ewald energy   TEWEN  =     13805.99061243
  -Hartree energ DENC   =    -16821.31373925
  -exchange      EXHF   =         0.00000000
  -V(xc)+E(xc)   XCENC  =       324.29329186
  PAW double counting   =      4518.26562774    -4535.63873926
  entropy T*S    EENTRO =        -0.00000000
  eigenvalues    EBANDS =     -1404.91530857
  atomic energy  EATOM  =      3914.43183447
  Solvation  Ediel_sol  =         0.00000000
  ---------------------------------------------------
  free energy    TOTEN  =      -194.19751201 eV

  energy without entropy =     -194.19751201  energy(sigma->0) =     -194.19751201


--------------------------------------------------------------------------------------------------------




--------------------------------------- Iteration      1(   7)  ---------------------------------------


    POTLOK:  cpu time      0.3825: real time      0.3935
    SETDIJ:  cpu time      0.0266: real time      0.0267
     EDDAV:  cpu time      2.2711: real time      2.2869
       DOS:  cpu time      0.0004: real time      0.0004
    CHARGE:  cpu time      0.2501: real time      0.2516
    MIXING:  cpu time      0.0098: real time      0.0099
    --------------------------------------------
      LOOP:  cpu time      2.9405: real time      2.9689

 eigenvalue-minimisations  :   676
 total energy-change (2. order) : 0.2947749E+01  (-0.7092483E+00)
 number of electron      90.0000002 magnetization 
 augmentation part        4.1216366 magnetization 

 Broyden mixing:
  rms(total) = 0.58091E+00    rms(broyden)= 0.58089E+00
  rms(prec ) = 0.58637E+00
  weight for this iteration     100.00

 eigenvalues of (default mixing * dielectric matrix)
  average eigenvalue GAMMA=   1.5390
  1.0063  2.0717

 Free energy of the ion-electron system (eV)
  ---------------------------------------------------
  alpha Z        PSCENC =         4.68890858
  Ewald energy   TEWEN  =     13805.99061243
  -Hartree energ DENC   =    -16918.58005554
  -exchange      EXHF   =         0.00000000
  -V(xc)+E(xc)   XCENC  =       328.57124911
  PAW double counting   =      6137.31479109    -6155.07209163
  entropy T*S    EENTRO =        -0.00000000
  eigenvalues    EBANDS =     -1308.59501145
  atomic energy  EATOM  =      3914.43183447
  Solvation  Ediel_sol  =         0.00000000
  ---------------------------------------------------
  free energy    TOTEN  =      -191.24976295 eV

  energy without entropy =     -191.24976295  energy(sigma->0) =     -191.24976295


--------------------------------------------------------------------------------------------------------




--------------------------------------- Iteration      1(   8)  ---------------------------------------


    POTLOK:  cpu time      0.3838: real time      0.3948
    SETDIJ:  cpu time      0.0300: real time      0.0301
     EDDAV:  cpu time      2.2436: real time      2.2586
       DOS:  cpu time      0.0002: real time      0.0002
    CHARGE:  cpu time      0.2428: real time      0.2443
    MIXING:  cpu time      0.0099: real time      0.0113
    --------------------------------------------
      LOOP:  cpu time      2.9104: real time      2.9394

 eigenvalue-minimisations  :   663
 total energy-change (2. order) : 0.5643786E+00  (-0.1711055E+00)
 number of electron      90.0000001 magnetization 
 augmentation part        4.0766697 magnetization 

 Broyden mixing:
  rms(total) = 0.19704E+00    rms(broyden)= 0.19702E+00
  rms(prec ) = 0.20000E+00
  weight for this iteration     100.00

 eigenvalues of (default mixing * dielectric matrix)
  average eigenvalue GAMMA=   1.5374
  2.2945  0.9276  1.3900

 Free energy of the ion-electron system (eV)
  ---------------------------------------------------
  alpha Z        PSCENC =         4.68890858
  Ewald energy   TEWEN  =     13805.99061243
  -Hartree energ DENC   =    -16978.70213183
  -exchange      EXHF   =         0.00000000
  -V(xc)+E(xc)   XCENC  =       331.41408036
  PAW double counting   =      7477.24474496    -7495.15120673
  entropy T*S    EENTRO =        -0.00000000
  eigenvalues    EBANDS =     -1250.60222656
  atomic energy  EATOM  =      3914.43183447
  Solvation  Ediel_sol  =         0.00000000
  ---------------------------------------------------
  free energy    TOTEN  =      -190.68538432 eV

  energy without entropy =     -190.68538432  energy(sigma->0) =     -190.68538432


--------------------------------------------------------------------------------------------------------




--------------------------------------- Iteration      1(   9)  ---------------------------------------


    POTLOK:  cpu time      0.3818: real time      0.3953
    SETDIJ:  cpu time      0.0171: real time      0.0171
     EDDAV:  cpu time      2.2819: real time      2.2971
       DOS:  cpu time      0.0003: real time      0.0003
    CHARGE:  cpu time      0.2473: real time      0.2489
    MIXING:  cpu time      0.0094: real time      0.0095
    --------------------------------------------
      LOOP:  cpu time      2.9379: real time      2.9682

 eigenvalue-minimisations  :   676
 total energy-change (2. order) : 0.7895268E-01  (-0.1314290E-01)
 number of electron      90.0000002 magnetization 
 augmentation part        4.0721248 magnetization 

 Broyden mixing:
  rms(total) = 0.66916E-01    rms(broyden)= 0.66914E-01
  rms(prec ) = 0.70559E-01
  weight for this iteration     100.00

 eigenvalues of (default mixing * dielectric matrix)
  average eigenvalue GAMMA=   1.5557
  2.3821  1.8146  1.0130  1.0130

 Free energy of the ion-electron system (eV)
  ---------------------------------------------------
  alpha Z        PSCENC =         4.68890858
  Ewald energy   TEWEN  =     13805.99061243
  -Hartree energ DENC   =    -16993.02954762
  -exchange      EXHF   =         0.00000000
  -V(xc)+E(xc)   XCENC  =       331.93708365
  PAW double counting   =      7825.26484316    -7843.04033985
  entropy T*S    EENTRO =        -0.00000000
  eigenvalues    EBANDS =     -1236.84982646
  atomic energy  EATOM  =      3914.43183447
  Solvation  Ediel_sol  =         0.00000000
  ---------------------------------------------------
  free energy    TOTEN  =      -190.60643164 eV

  energy without entropy =     -190.60643164  energy(sigma->0) =     -190.60643164


--------------------------------------------------------------------------------------------------------




--------------------------------------- Iteration      1(  10)  ---------------------------------------


    POTLOK:  cpu time      0.3766: real time      0.3844
    SETDIJ:  cpu time      0.0266: real time      0.0267
     EDDAV:  cpu time      2.3621: real time      2.3763
       DOS:  cpu time      0.0142: real time      0.0143
    CHARGE:  cpu time      3.3701: real time      3.3863
    MIXING:  cpu time      0.0169: real time      0.0169
    --------------------------------------------
      LOOP:  cpu time      6.1664: real time      6.2048

 eigenvalue-minimisations  :   689
 total energy-change (2. order) : 0.1908780E-01  (-0.4669670E-02)
 number of electron      90.0000002 magnetization 
 augmentation part        4.0678066 magnetization 

 Broyden mixing:
  rms(total) = 0.32478E-01    rms(broyden)= 0.32469E-01
  rms(prec ) = 0.36548E-01
  weight for this iteration     100.00

 eigenvalues of (default mixing * dielectric matrix)
  average eigenvalue GAMMA=   1.4040
  2.2213  1.9322  0.9003  0.9831  0.9831

 Free energy of the ion-electron system (eV)
  ---------------------------------------------------
  alpha Z        PSCENC =         4.68890858
  Ewald energy   TEWEN  =     13805.99061243
  -Hartree energ DENC   =    -17002.76015167
  -exchange      EXHF   =         0.00000000
  -V(xc)+E(xc)   XCENC  =       332.13169817
  PAW double counting   =      7902.30419951    -7920.00504517
  entropy T*S    EENTRO =        -0.00000000
  eigenvalues    EBANDS =     -1227.36940016
  atomic energy  EATOM  =      3914.43183447
  Solvation  Ediel_sol  =         0.00000000
  ---------------------------------------------------
  free energy    TOTEN  =      -190.58734385 eV

  energy without entropy =     -190.58734385  energy(sigma->0) =     -190.58734385


--------------------------------------------------------------------------------------------------------




--------------------------------------- Iteration      1(  11)  ---------------------------------------


    POTLOK:  cpu time      0.3925: real time      0.4051
    SETDIJ:  cpu time      0.0112: real time      0.0112
     EDDAV:  cpu time      2.6750: real time      2.6914
       DOS:  cpu time      0.0004: real time      0.0004
    CHARGE:  cpu time      0.2401: real time      0.2415
    MIXING:  cpu time      0.0112: real time      0.0113
    --------------------------------------------
      LOOP:  cpu time      3.3303: real time      3.3609

 eigenvalue-minimisations  :   806
 total energy-change (2. order) : 0.1460199E-02  (-0.6574290E-03)
 number of electron      90.0000002 magnetization 
 augmentation part        4.0688273 magnetization 

 Broyden mixing:
  rms(total) = 0.21025E-01    rms(broyden)= 0.21023E-01
  rms(prec ) = 0.25544E-01
  weight for this iteration     100.00

 eigenvalues of (default mixing * dielectric matrix)
  average eigenvalue GAMMA=   1.5036
  2.3391  2.3391  1.3613  1.0627  0.9597  0.9597

 Free energy of the ion-electron system (eV)
  ---------------------------------------------------
  alpha Z        PSCENC =         4.68890858
  Ewald energy   TEWEN  =     13805.99061243
  -Hartree energ DENC   =    -17005.77617463
  -exchange      EXHF   =         0.00000000
  -V(xc)+E(xc)   XCENC  =       332.14629959
  PAW double counting   =      7878.20079985    -7895.89318461
  entropy T*S    EENTRO =        -0.00000000
  eigenvalues    EBANDS =     -1224.37497933
  atomic energy  EATOM  =      3914.43183447
  Solvation  Ediel_sol  =         0.00000000
  ---------------------------------------------------
  free energy    TOTEN  =      -190.58588365 eV

  energy without entropy =     -190.58588365  energy(sigma->0) =     -190.58588365


--------------------------------------------------------------------------------------------------------




--------------------------------------- Iteration      1(  12)  ---------------------------------------


    POTLOK:  cpu time      0.3683: real time      0.3782
    SETDIJ:  cpu time      0.0101: real time      0.0101
     EDDAV:  cpu time      2.1348: real time      2.1486
       DOS:  cpu time      0.0006: real time      0.0006
    CHARGE:  cpu time      0.2439: real time      0.2454
    MIXING:  cpu time      0.0098: real time      0.0099
    --------------------------------------------
      LOOP:  cpu time      2.7675: real time      2.7927

 eigenvalue-minimisations  :   624
 total energy-change (2. order) : 0.1041877E-02  (-0.8006199E-03)
 number of electron      90.0000001 magnetization 
 augmentation part        4.0698943 magnetization 

 Broyden mixing:
  rms(total) = 0.12720E-01    rms(broyden)= 0.12719E-01
  rms(prec ) = 0.16009E-01
  weight for this iteration     100.00

 eigenvalues of (default mixing * dielectric matrix)
  average eigenvalue GAMMA=   1.6470
  3.3609  2.4446  1.5962  0.9334  0.9334  1.1301  1.1301

 Free energy of the ion-electron system (eV)
  ---------------------------------------------------
  alpha Z        PSCENC =         4.68890858
  Ewald energy   TEWEN  =     13805.99061243
  -Hartree energ DENC   =    -17015.47419237
  -exchange      EXHF   =         0.00000000
  -V(xc)+E(xc)   XCENC  =       332.28219367
  PAW double counting   =      7864.74743939    -7882.42194693
  entropy T*S    EENTRO =        -0.00000000
  eigenvalues    EBANDS =     -1214.82969101
  atomic energy  EATOM  =      3914.43183447
  Solvation  Ediel_sol  =         0.00000000
  ---------------------------------------------------
  free energy    TOTEN  =      -190.58484177 eV

  energy without entropy =     -190.58484177  energy(sigma->0) =     -190.58484177


--------------------------------------------------------------------------------------------------------




--------------------------------------- Iteration      1(  13)  ---------------------------------------


    POTLOK:  cpu time      0.3844: real time      0.3961
    SETDIJ:  cpu time      0.0164: real time      0.0165
     EDDAV:  cpu time      2.2054: real time      2.2192
       DOS:  cpu time      0.0002: real time      0.0002
    CHARGE:  cpu time      0.2417: real time      0.2432
    MIXING:  cpu time      0.0100: real time      0.0101
    --------------------------------------------
      LOOP:  cpu time      2.8582: real time      2.8852

 eigenvalue-minimisations  :   637
 total energy-change (2. order) :-0.3353694E-02  (-0.5608963E-03)
 number of electron      90.0000002 magnetization 
 augmentation part        4.0665493 magnetization 

 Broyden mixing:
  rms(total) = 0.73733E-02    rms(broyden)= 0.73723E-02
  rms(prec ) = 0.93682E-02
  weight for this iteration     100.00

 eigenvalues of (default mixing * dielectric matrix)
  average eigenvalue GAMMA=   1.7341
  3.9527  2.4917  1.7594  1.7594  0.9518  0.9518  1.0028  1.0028

 Free energy of the ion-electron system (eV)
  ---------------------------------------------------
  alpha Z        PSCENC =         4.68890858
  Ewald energy   TEWEN  =     13805.99061243
  -Hartree energ DENC   =    -17024.44605504
  -exchange      EXHF   =         0.00000000
  -V(xc)+E(xc)   XCENC  =       332.42217747
  PAW double counting   =      7859.02162576    -7876.69472393
  entropy T*S    EENTRO =        -0.00000000
  eigenvalues    EBANDS =     -1206.00257520
  atomic energy  EATOM  =      3914.43183447
  Solvation  Ediel_sol  =         0.00000000
  ---------------------------------------------------
  free energy    TOTEN  =      -190.58819547 eV

  energy without entropy =     -190.58819547  energy(sigma->0) =     -190.58819547


--------------------------------------------------------------------------------------------------------




--------------------------------------- Iteration      1(  14)  ---------------------------------------


    POTLOK:  cpu time      0.3959: real time      0.4069
    SETDIJ:  cpu time      0.0246: real time      0.0247
     EDDAV:  cpu time      2.2816: real time      2.2966
       DOS:  cpu time      0.0002: real time      0.0002
    CHARGE:  cpu time      0.2419: real time      0.2434
    MIXING:  cpu time      0.0110: real time      0.0111
    --------------------------------------------
      LOOP:  cpu time      2.9553: real time      2.9829

 eigenvalue-minimisations  :   663
 total energy-change (2. order) :-0.9434207E-02  (-0.1447603E-03)
 number of electron      90.0000002 magnetization 
 augmentation part        4.0656804 magnetization 

 Broyden mixing:
  rms(total) = 0.46683E-02    rms(broyden)= 0.46681E-02
  rms(prec ) = 0.58424E-02
  weight for this iteration     100.00

 eigenvalues of (default mixing * dielectric matrix)
  average eigenvalue GAMMA=   1.8366
  5.0323  2.4199  2.4199  1.6404  1.0638  1.0638  0.9707  0.9595  0.9595

 Free energy of the ion-electron system (eV)
  ---------------------------------------------------
  alpha Z        PSCENC =         4.68890858
  Ewald energy   TEWEN  =     13805.99061243
  -Hartree energ DENC   =    -17028.81181294
  -exchange      EXHF   =         0.00000000
  -V(xc)+E(xc)   XCENC  =       332.45465348
  PAW double counting   =      7852.31306790    -7869.98246878
  entropy T*S    EENTRO =        -0.00000000
  eigenvalues    EBANDS =     -1201.68242480
  atomic energy  EATOM  =      3914.43183447
  Solvation  Ediel_sol  =         0.00000000
  ---------------------------------------------------
  free energy    TOTEN  =      -190.59762967 eV

  energy without entropy =     -190.59762967  energy(sigma->0) =     -190.59762967


--------------------------------------------------------------------------------------------------------




--------------------------------------- Iteration      1(  15)  ---------------------------------------


    POTLOK:  cpu time      0.3855: real time      0.3938
    SETDIJ:  cpu time      0.0635: real time      0.0637
     EDDAV:  cpu time      6.7284: real time      6.7675
       DOS:  cpu time      0.0004: real time      0.0003
    CHARGE:  cpu time      0.2421: real time      0.2435
    MIXING:  cpu time      0.0113: real time      0.0113
    --------------------------------------------
      LOOP:  cpu time      7.4310: real time      7.4802

 eigenvalue-minimisations  :   663
 total energy-change (2. order) :-0.7598352E-02  (-0.1090150E-03)
 number of electron      90.0000001 magnetization 
 augmentation part        4.0660951 magnetization 

 Broyden mixing:
  rms(total) = 0.28243E-02    rms(broyden)= 0.28237E-02
  rms(prec ) = 0.34810E-02
  weight for this iteration     100.00

 eigenvalues of (default mixing * dielectric matrix)
  average eigenvalue GAMMA=   1.9660
  6.3527  2.7235  2.2367  1.6571  1.6571  1.0508  1.0508  1.0079  0.9614  0.9614

 Free energy of the ion-electron system (eV)
  ---------------------------------------------------
  alpha Z        PSCENC =         4.68890858
  Ewald energy   TEWEN  =     13805.99061243
  -Hartree energ DENC   =    -17031.63001520
  -exchange      EXHF   =         0.00000000
  -V(xc)+E(xc)   XCENC  =       332.47027450
  PAW double counting   =      7850.20022092    -7867.86846454
  entropy T*S    EENTRO =        -0.00000000
  eigenvalues    EBANDS =     -1198.88859917
  atomic energy  EATOM  =      3914.43183447
  Solvation  Ediel_sol  =         0.00000000
  ---------------------------------------------------
  free energy    TOTEN  =      -190.60522803 eV

  energy without entropy =     -190.60522803  energy(sigma->0) =     -190.60522803


--------------------------------------------------------------------------------------------------------




--------------------------------------- Iteration      1(  16)  ---------------------------------------


    POTLOK:  cpu time      0.4015: real time      0.4100
    SETDIJ:  cpu time      0.0354: real time      0.0355
     EDDAV:  cpu time      2.2843: real time      2.2988
       DOS:  cpu time      0.0003: real time      0.0003
    CHARGE:  cpu time      0.2437: real time      0.2452
    MIXING:  cpu time      0.0110: real time      0.0111
    --------------------------------------------
      LOOP:  cpu time      2.9762: real time      3.0009

 eigenvalue-minimisations  :   663
 total energy-change (2. order) :-0.6333642E-02  (-0.5216842E-04)
 number of electron      90.0000001 magnetization 
 augmentation part        4.0657568 magnetization 

 Broyden mixing:
  rms(total) = 0.18988E-02    rms(broyden)= 0.18987E-02
  rms(prec ) = 0.22328E-02
  weight for this iteration     100.00

 eigenvalues of (default mixing * dielectric matrix)
  average eigenvalue GAMMA=   2.0111
  6.8002  3.3244  2.3774  1.9424  1.0892  1.0892  1.2818  1.2818  1.0078  0.9641
  0.9641

 Free energy of the ion-electron system (eV)
  ---------------------------------------------------
  alpha Z        PSCENC =         4.68890858
  Ewald energy   TEWEN  =     13805.99061243
  -Hartree energ DENC   =    -17033.08987793
  -exchange      EXHF   =         0.00000000
  -V(xc)+E(xc)   XCENC  =       332.47321834
  PAW double counting   =      7848.27289014    -7865.94197267
  entropy T*S    EENTRO =        -0.00000000
  eigenvalues    EBANDS =     -1197.43717502
  atomic energy  EATOM  =      3914.43183447
  Solvation  Ediel_sol  =         0.00000000
  ---------------------------------------------------
  free energy    TOTEN  =      -190.61156167 eV

  energy without entropy =     -190.61156167  energy(sigma->0) =     -190.61156167


--------------------------------------------------------------------------------------------------------




--------------------------------------- Iteration      1(  17)  ---------------------------------------


    POTLOK:  cpu time      0.3812: real time      0.3963
    SETDIJ:  cpu time      0.0198: real time      0.0199
     EDDAV:  cpu time      2.1264: real time      2.1398
       DOS:  cpu time      0.0003: real time      0.0003
    CHARGE:  cpu time      0.2425: real time      0.2439
    MIXING:  cpu time      0.0107: real time      0.0108
    --------------------------------------------
      LOOP:  cpu time      2.7809: real time      2.8110

 eigenvalue-minimisations  :   624
 total energy-change (2. order) :-0.4144008E-02  (-0.3380505E-04)
 number of electron      90.0000001 magnetization 
 augmentation part        4.0657839 magnetization 

 Broyden mixing:
  rms(total) = 0.10271E-02    rms(broyden)= 0.10271E-02
  rms(prec ) = 0.12486E-02
  weight for this iteration     100.00

 eigenvalues of (default mixing * dielectric matrix)
  average eigenvalue GAMMA=   2.1374
  7.7124  3.9976  2.3616  2.3616  1.7084  1.2675  1.2675  1.0735  1.0735  0.9441
  0.9441  0.9370

 Free energy of the ion-electron system (eV)
  ---------------------------------------------------
  alpha Z        PSCENC =         4.68890858
  Ewald energy   TEWEN  =     13805.99061243
  -Hartree energ DENC   =    -17033.23821453
  -exchange      EXHF   =         0.00000000
  -V(xc)+E(xc)   XCENC  =       332.46412378
  PAW double counting   =      7850.85290582    -7868.52068610
  entropy T*S    EENTRO =        -0.00000000
  eigenvalues    EBANDS =     -1197.28519011
  atomic energy  EATOM  =      3914.43183447
  Solvation  Ediel_sol  =         0.00000000
  ---------------------------------------------------
  free energy    TOTEN  =      -190.61570568 eV

  energy without entropy =     -190.61570568  energy(sigma->0) =     -190.61570568


--------------------------------------------------------------------------------------------------------




--------------------------------------- Iteration      1(  18)  ---------------------------------------


    POTLOK:  cpu time      0.3837: real time      0.3975
    SETDIJ:  cpu time      0.0119: real time      0.0119
     EDDAV:  cpu time      2.2186: real time      2.2332
       DOS:  cpu time      0.0008: real time      0.0008
    CHARGE:  cpu time      3.3492: real time      3.3720
    MIXING:  cpu time      0.0111: real time      0.0114
    --------------------------------------------
      LOOP:  cpu time      5.9753: real time      6.0269

 eigenvalue-minimisations  :   611
 total energy-change (2. order) :-0.2296784E-02  (-0.2057001E-04)
 number of electron      90.0000001 magnetization 
 augmentation part        4.0655397 magnetization 

 Broyden mixing:
  rms(total) = 0.69918E-03    rms(broyden)= 0.69903E-03
  rms(prec ) = 0.80072E-03
  weight for this iteration     100.00

 eigenvalues of (default mixing * dielectric matrix)
  average eigenvalue GAMMA=   2.1552
  8.1164  4.4328  2.4889  2.4889  1.5933  1.5933  1.1650  1.1650  0.9329  0.9502
  0.9502  1.0701  1.0701

 Free energy of the ion-electron system (eV)
  ---------------------------------------------------
  alpha Z        PSCENC =         4.68890858
  Ewald energy   TEWEN  =     13805.99061243
  -Hartree energ DENC   =    -17033.46547915
  -exchange      EXHF   =         0.00000000
  -V(xc)+E(xc)   XCENC  =       332.46295767
  PAW double counting   =      7851.03726608    -7868.70511520
  entropy T*S    EENTRO =        -0.00000000
  eigenvalues    EBANDS =     -1197.05898733
  atomic energy  EATOM  =      3914.43183447
  Solvation  Ediel_sol  =         0.00000000
  ---------------------------------------------------
  free energy    TOTEN  =      -190.61800246 eV

  energy without entropy =     -190.61800246  energy(sigma->0) =     -190.61800246


--------------------------------------------------------------------------------------------------------




--------------------------------------- Iteration      1(  19)  ---------------------------------------


    POTLOK:  cpu time      0.3981: real time      0.4205
    SETDIJ:  cpu time      0.0295: real time      0.0296
     EDDAV:  cpu time      2.2923: real time      2.3066
       DOS:  cpu time      0.0002: real time      0.0002
    CHARGE:  cpu time      0.2410: real time      0.2424
    MIXING:  cpu time      0.0129: real time      0.0130
    --------------------------------------------
      LOOP:  cpu time      2.9740: real time      3.0123

 eigenvalue-minimisations  :   676
 total energy-change (2. order) :-0.7434891E-03  (-0.3430977E-05)
 number of electron      90.0000001 magnetization 
 augmentation part        4.0655244 magnetization 

 Broyden mixing:
  rms(total) = 0.45001E-03    rms(broyden)= 0.45000E-03
  rms(prec ) = 0.51510E-03
  weight for this iteration     100.00

 eigenvalues of (default mixing * dielectric matrix)
  average eigenvalue GAMMA=   2.2215
  8.4163  4.9990  2.9272  2.3241  2.3241  1.6827  1.2411  1.2411  1.0675  1.0675
  0.9479  0.9479  0.9576  0.9576

 Free energy of the ion-electron system (eV)
  ---------------------------------------------------
  alpha Z        PSCENC =         4.68890858
  Ewald energy   TEWEN  =     13805.99061243
  -Hartree energ DENC   =    -17033.45909105
  -exchange      EXHF   =         0.00000000
  -V(xc)+E(xc)   XCENC  =       332.46077447
  PAW double counting   =      7850.54458747    -7868.21232494
  entropy T*S    EENTRO =        -0.00000000
  eigenvalues    EBANDS =     -1197.06404737
  atomic energy  EATOM  =      3914.43183447
  Solvation  Ediel_sol  =         0.00000000
  ---------------------------------------------------
  free energy    TOTEN  =      -190.61874595 eV

  energy without entropy =     -190.61874595  energy(sigma->0) =     -190.61874595


--------------------------------------------------------------------------------------------------------




--------------------------------------- Iteration      1(  20)  ---------------------------------------


    POTLOK:  cpu time      0.3935: real time      0.4075
    SETDIJ:  cpu time      0.0274: real time      0.0275
     EDDAV:  cpu time      2.1945: real time      2.2078
       DOS:  cpu time      0.0003: real time      0.0003
    CHARGE:  cpu time      0.2424: real time      0.2438
    MIXING:  cpu time      0.0127: real time      0.0128
    --------------------------------------------
      LOOP:  cpu time      2.8709: real time      2.8997

 eigenvalue-minimisations  :   650
 total energy-change (2. order) :-0.4798544E-03  (-0.1961460E-05)
 number of electron      90.0000001 magnetization 
 augmentation part        4.0656036 magnetization 

 Broyden mixing:
  rms(total) = 0.29187E-03    rms(broyden)= 0.29180E-03
  rms(prec ) = 0.31956E-03
  weight for this iteration     100.00

 eigenvalues of (default mixing * dielectric matrix)
  average eigenvalue GAMMA=   2.2242
  8.5038  5.4814  3.1933  2.5458  2.1499  1.5291  1.5291  1.2465  1.2465  1.0537
  1.0537  0.9468  0.9468  0.9464  0.9896

 Free energy of the ion-electron system (eV)
  ---------------------------------------------------
  alpha Z        PSCENC =         4.68890858
  Ewald energy   TEWEN  =     13805.99061243
  -Hartree energ DENC   =    -17033.44903702
  -exchange      EXHF   =         0.00000000
  -V(xc)+E(xc)   XCENC  =       332.45958212
  PAW double counting   =      7850.05179770    -7867.71957075
  entropy T*S    EENTRO =        -0.00000000
  eigenvalues    EBANDS =     -1197.07335333
  atomic energy  EATOM  =      3914.43183447
  Solvation  Ediel_sol  =         0.00000000
  ---------------------------------------------------
  free energy    TOTEN  =      -190.61922580 eV

  energy without entropy =     -190.61922580  energy(sigma->0) =     -190.61922580


--------------------------------------------------------------------------------------------------------




--------------------------------------- Iteration      1(  21)  ---------------------------------------


    POTLOK:  cpu time      0.3930: real time      0.3959
    SETDIJ:  cpu time      0.0191: real time      0.0192
     EDDAV:  cpu time      2.0013: real time      2.0152
       DOS:  cpu time      0.0002: real time      0.0002
    CHARGE:  cpu time      0.2415: real time      0.2434
    MIXING:  cpu time      0.0119: real time      0.0120
    --------------------------------------------
      LOOP:  cpu time      2.6671: real time      2.6857

 eigenvalue-minimisations  :   572
 total energy-change (2. order) :-0.1411810E-03  (-0.2862796E-06)
 number of electron      90.0000001 magnetization 
 augmentation part        4.0655636 magnetization 

 Broyden mixing:
  rms(total) = 0.16402E-03    rms(broyden)= 0.16401E-03
  rms(prec ) = 0.18077E-03
  weight for this iteration     100.00

 eigenvalues of (default mixing * dielectric matrix)
  average eigenvalue GAMMA=   2.2934
  8.9054  6.0379  3.8330  2.4936  2.2065  2.2065  1.5747  1.2446  1.2446  1.0497
  1.0497  0.9433  0.9433  0.9402  1.0104  1.0104

 Free energy of the ion-electron system (eV)
  ---------------------------------------------------
  alpha Z        PSCENC =         4.68890858
  Ewald energy   TEWEN  =     13805.99061243
  -Hartree energ DENC   =    -17033.45893963
  -exchange      EXHF   =         0.00000000
  -V(xc)+E(xc)   XCENC  =       332.45976717
  PAW double counting   =      7849.91838344    -7867.58622887
  entropy T*S    EENTRO =        -0.00000000
  eigenvalues    EBANDS =     -1197.06370456
  atomic energy  EATOM  =      3914.43183447
  Solvation  Ediel_sol  =         0.00000000
  ---------------------------------------------------
  free energy    TOTEN  =      -190.61936698 eV

  energy without entropy =     -190.61936698  energy(sigma->0) =     -190.61936698


--------------------------------------------------------------------------------------------------------




--------------------------------------- Iteration      1(  22)  ---------------------------------------


    POTLOK:  cpu time      0.3874: real time      0.3942
    SETDIJ:  cpu time      0.0245: real time      0.0245
     EDDAV:  cpu time      1.8580: real time      1.8699
       DOS:  cpu time      0.0002: real time      0.0002
    CHARGE:  cpu time      0.2423: real time      0.2438
    MIXING:  cpu time      0.0126: real time      0.0127
    --------------------------------------------
      LOOP:  cpu time      2.5250: real time      2.5454

 eigenvalue-minimisations  :   520
 total energy-change (2. order) :-0.9459777E-04  (-0.1940239E-06)
 number of electron      90.0000001 magnetization 
 augmentation part        4.0655506 magnetization 

 Broyden mixing:
  rms(total) = 0.82249E-04    rms(broyden)= 0.82237E-04
  rms(prec ) = 0.88997E-04
  weight for this iteration     100.00

 eigenvalues of (default mixing * dielectric matrix)
  average eigenvalue GAMMA=   2.3032
  8.9770  6.5504  4.0731  2.6405  2.5577  1.9667  1.6766  1.2431  1.2431  1.0561
  1.0561  1.1748  1.1748  0.9477  0.9477  0.9344  0.9344

 Free energy of the ion-electron system (eV)
  ---------------------------------------------------
  alpha Z        PSCENC =         4.68890858
  Ewald energy   TEWEN  =     13805.99061243
  -Hartree energ DENC   =    -17033.46222059
  -exchange      EXHF   =         0.00000000
  -V(xc)+E(xc)   XCENC  =       332.45967698
  PAW double counting   =      7850.08842650    -7867.75609874
  entropy T*S    EENTRO =        -0.00000000
  eigenvalues    EBANDS =     -1197.06060120
  atomic energy  EATOM  =      3914.43183447
  Solvation  Ediel_sol  =         0.00000000
  ---------------------------------------------------
  free energy    TOTEN  =      -190.61946158 eV

  energy without entropy =     -190.61946158  energy(sigma->0) =     -190.61946158


--------------------------------------------------------------------------------------------------------




--------------------------------------- Iteration      1(  23)  ---------------------------------------


    POTLOK:  cpu time      0.4164: real time      0.4196
    SETDIJ:  cpu time      0.0278: real time      0.0279
     EDDAV:  cpu time      1.7812: real time      1.7922
       DOS:  cpu time      0.0003: real time      0.0003
    CHARGE:  cpu time      0.2412: real time      0.2425
    MIXING:  cpu time      0.0117: real time      0.0117
    --------------------------------------------
      LOOP:  cpu time      2.4784: real time      2.4942

 eigenvalue-minimisations  :   481
 total energy-change (2. order) :-0.2626294E-04  (-0.4653299E-07)
 number of electron      90.0000001 magnetization 
 augmentation part        4.0655527 magnetization 

 Broyden mixing:
  rms(total) = 0.35352E-04    rms(broyden)= 0.35350E-04
  rms(prec ) = 0.39922E-04
  weight for this iteration     100.00

 eigenvalues of (default mixing * dielectric matrix)
  average eigenvalue GAMMA=   2.3289
[...]
     48      -1.8563      0.00000
     49      -1.2669      0.00000
     50      -0.6905      0.00000
     51      -0.5087      0.00000
     52      -0.5024      0.00000
     53      -0.2917      0.00000
     54      -0.0558      0.00000
     55       0.2098      0.00000
     56       0.2224      0.00000
     57       0.3303      0.00000
     58       0.4010      0.00000
     59       0.4603      0.00000
     60       0.5119      0.00000
     61       0.5980      0.00000
     62       0.6113      0.00000
     63       0.6417      0.00000
     64       0.6587      0.00000
     65       0.6835      0.00000

 k-point     2 :       0.5000    0.0000    0.0000
  band No.  band energies     occupation 
      1     -27.6663      2.00000
      2     -27.6661      2.00000
      3     -25.3362      2.00000
      4     -25.3361      2.00000
      5     -22.0792      2.00000
      6     -21.5718      2.00000
      7     -20.0018      2.00000
      8     -19.0147      2.00000
      9     -18.7962      2.00000
     10     -18.7538      2.00000
     11     -17.0183      2.00000
     12     -16.0712      2.00000
     13     -15.6997      2.00000
     14     -15.1511      2.00000
     15     -14.6422      2.00000
     16     -14.3840      2.00000
     17     -13.5197      2.00000
     18     -12.9789      2.00000
     19     -12.3068      2.00000
     20     -11.9964      2.00000
     21     -11.5797      2.00000
     22     -11.4697      2.00000
     23     -11.3281      2.00000
     24     -11.0471      2.00000
     25     -11.0303      2.00000
     26     -10.8359      2.00000
     27     -10.7850      2.00000
     28     -10.7060      2.00000
     29     -10.2834      2.00000
     30     -10.1970      2.00000
     31      -9.8986      2.00000
     32      -9.6327      2.00000
     33      -9.2786      2.00000
     34      -9.1140      2.00000
     35      -8.8294      2.00000
     36      -8.8151      2.00000
     37      -8.1337      2.00000
     38      -7.8254      2.00000
     39      -7.7384      2.00000
     40      -7.4387      2.00000
     41      -6.8295      2.00000
     42      -6.6661      2.00000
     43      -6.5035      2.00000
     44      -6.4953      2.00000
     45      -6.0811      2.00000
     46      -3.1104      0.00000
     47      -1.9908      0.00000
     48      -1.8560      0.00000
     49      -1.2667      0.00000
     50      -0.6236      0.00000
     51      -0.5080      0.00000
     52      -0.4791      0.00000
     53      -0.2523      0.00000
     54      -0.2096      0.00000
     55       0.2735      0.00000
     56       0.2890      0.00000
     57       0.3498      0.00000
     58       0.3572      0.00000
     59       0.4450      0.00000
     60       0.4553      0.00000
     61       0.5409      0.00000
     62       0.5450      0.00000
     63       0.6045      0.00000
     64       0.6294      0.00000
     65       0.7137      0.00000

 k-point     3 :       0.0000    0.5000    0.0000
  band No.  band energies     occupation 
      1     -27.6663      2.00000
      2     -27.6661      2.00000
      3     -25.3362      2.00000
      4     -25.3361      2.00000
      5     -22.0792      2.00000
      6     -21.5718      2.00000
      7     -20.0018      2.00000
      8     -19.0147      2.00000
      9     -18.7962      2.00000
     10     -18.7538      2.00000
     11     -17.0183      2.00000
     12     -16.0712      2.00000
     13     -15.6997      2.00000
     14     -15.1511      2.00000
     15     -14.6422      2.00000
     16     -14.3840      2.00000
     17     -13.5197      2.00000
     18     -12.9789      2.00000
     19     -12.3068      2.00000
     20     -11.9964      2.00000
     21     -11.5797      2.00000
     22     -11.4697      2.00000
     23     -11.3281      2.00000
     24     -11.0471      2.00000
     25     -11.0303      2.00000
     26     -10.8359      2.00000
     27     -10.7850      2.00000
     28     -10.7060      2.00000
     29     -10.2834      2.00000
     30     -10.1970      2.00000
     31      -9.8986      2.00000
     32      -9.6327      2.00000
     33      -9.2786      2.00000
     34      -9.1140      2.00000
     35      -8.8294      2.00000
     36      -8.8151      2.00000
     37      -8.1337      2.00000
     38      -7.8254      2.00000
     39      -7.7384      2.00000
     40      -7.4387      2.00000
     41      -6.8295      2.00000
     42      -6.6661      2.00000
     43      -6.5035      2.00000
     44      -6.4953      2.00000
     45      -6.0811      2.00000
     46      -3.1104      0.00000
     47      -1.9908      0.00000
     48      -1.8560      0.00000
     49      -1.2667      0.00000
     50      -0.6254      0.00000
     51      -0.5079      0.00000
     52      -0.4790      0.00000
     53      -0.2529      0.00000
     54      -0.2050      0.00000
     55       0.2765      0.00000
     56       0.2888      0.00000
     57       0.3510      0.00000
     58       0.3524      0.00000
     59       0.4444      0.00000
     60       0.4551      0.00000
     61       0.5417      0.00000
     62       0.5461      0.00000
     63       0.6027      0.00000
     64       0.6290      0.00000
     65       0.7129      0.00000

 k-point     4 :       0.5000    0.5000    0.0000
  band No.  band energies     occupation 
      1     -27.6663      2.00000
      2     -27.6661      2.00000
      3     -25.3362      2.00000
      4     -25.3361      2.00000
      5     -22.0792      2.00000
      6     -21.5718      2.00000
      7     -20.0018      2.00000
      8     -19.0147      2.00000
      9     -18.7962      2.00000
     10     -18.7538      2.00000
     11     -17.0183      2.00000
     12     -16.0712      2.00000
     13     -15.6997      2.00000
     14     -15.1511      2.00000
     15     -14.6422      2.00000
     16     -14.3840      2.00000
     17     -13.5197      2.00000
     18     -12.9789      2.00000
     19     -12.3068      2.00000
     20     -11.9964      2.00000
     21     -11.5797      2.00000
     22     -11.4697      2.00000
     23     -11.3281      2.00000
     24     -11.0471      2.00000
     25     -11.0303      2.00000
     26     -10.8359      2.00000
     27     -10.7850      2.00000
     28     -10.7060      2.00000
     29     -10.2834      2.00000
     30     -10.1970      2.00000
     31      -9.8986      2.00000
     32      -9.6327      2.00000
     33      -9.2786      2.00000
     34      -9.1140      2.00000
     35      -8.8294      2.00000
     36      -8.8151      2.00000
     37      -8.1337      2.00000
     38      -7.8253      2.00000
     39      -7.7384      2.00000
     40      -7.4387      2.00000
     41      -6.8294      2.00000
     42      -6.6661      2.00000
     43      -6.5035      2.00000
     44      -6.4953      2.00000
     45      -6.0811      2.00000
     46      -3.1106      0.00000
     47      -1.9910      0.00000
     48      -1.8557      0.00000
     49      -1.2664      0.00000
     50      -0.5691      0.00000
     51      -0.5116      0.00000
     52      -0.4554      0.00000
     53      -0.2166      0.00000
     54      -0.2159      0.00000
     55       0.1578      0.00000
     56       0.1962      0.00000
     57       0.3700      0.00000
     58       0.3746      0.00000
     59       0.4577      0.00000
     60       0.5767      0.00000
     61       0.6349      0.00000
     62       0.6610      0.00000
     63       0.6630      0.00000
     64       0.6687      0.00000
     65       0.6842      0.00000


--------------------------------------------------------------------------------------------------------


 soft charge-density along one line, spin component           1
         0         1         2         3         4         5         6         7         8         9
 total charge-density along one line
 
 pseudopotential strength for first ion, spin component:           1
 10.303  13.703   0.000  -0.002  -0.000   0.000   0.004   0.000
 13.703  18.225   0.000  -0.003  -0.000   0.000   0.005   0.000
  0.000   0.000  -4.420  -0.000   0.010   8.649   0.000  -0.016
 -0.002  -0.003  -0.000  -4.427  -0.000   0.000   8.661   0.000
 -0.000  -0.000   0.010  -0.000  -4.420  -0.016   0.000   8.650
  0.000   0.000   8.649   0.000  -0.016 -19.068  -0.000   0.025
  0.004   0.005   0.000   8.661   0.000  -0.000 -19.086  -0.000
  0.000   0.000  -0.016   0.000   8.650   0.025  -0.000 -19.068
 total augmentation occupancy for first ion, spin component:           1
  7.627  -3.312  -0.003   0.181   0.005  -0.000   0.027   0.001
 -3.312   1.498   0.002  -0.098  -0.003   0.000  -0.014  -0.000
 -0.003   0.002   1.487   0.003  -0.346   0.117   0.000  -0.049
  0.181  -0.098   0.003   1.744   0.001   0.000   0.160   0.000
  0.005  -0.003  -0.346   0.001   1.495  -0.049   0.000   0.118
 -0.000   0.000   0.117   0.000  -0.049   0.010   0.000  -0.006
  0.027  -0.014   0.000   0.160   0.000   0.000   0.016   0.000
  0.001  -0.000  -0.049   0.000   0.118  -0.006   0.000   0.010


------------------------ aborting loop because EDIFF is reached ----------------------------------------


    CHARGE:  cpu time      0.2391: real time      0.2407
    FORLOC:  cpu time      0.0265: real time      0.0268
    FORNL :  cpu time      0.6085: real time      0.6123
    STRESS:  cpu time      1.8363: real time      1.8501
    FORCOR:  cpu time      0.3661: real time      0.3682
    FORHAR:  cpu time      0.1021: real time      0.1028
    MIXING:  cpu time      0.0124: real time      0.0125
    OFIELD:  cpu time      0.0000: real time      0.0000

  FORCE on cell =-STRESS in cart. coord.  units (eV):
  Direction    XX          YY          ZZ          XY          YZ          ZX
  --------------------------------------------------------------------------------------
  Alpha Z     4.68891     4.68891     4.68891
  Ewald    8334.78559  8240.68691 -2769.48429 -2414.68383    -4.29158    74.12509
  Hartree  9794.00650  9732.56197 -2493.11284 -1482.90839   -36.80522    89.09476
  E(xc)    -361.38075  -361.54657  -356.33837    -4.85511     0.27908    -0.20143
  Local  -19143.89610-18991.24473  4327.37877  3808.18276    53.24933  -174.11990
  n-local  -170.60605  -170.33043  -175.62159     9.50965    -2.26993     2.17939
  augment    22.68995    22.71642    21.55951     1.14350    -0.47957     0.46534
  Kinetic  1519.30099  1522.05541  1441.03526    83.54804    -9.68322     8.46238
  Fock        0.00000     0.00000     0.00000     0.00000     0.00000     0.00000
  -------------------------------------------------------------------------------------
  Total      -0.41096    -0.41210     0.10536    -0.06337    -0.00111     0.00563
  in kB      -0.08480    -0.08504     0.02174    -0.01308    -0.00023     0.00116
  external pressure =       -0.05 kB  Pullay stress =        0.00 kB


 VOLUME and BASIS-vectors are now :
 -----------------------------------------------------------------------------
  energy-cutoff  :      600.00
  volume of cell :     7764.29
      direct lattice vectors                 reciprocal lattice vectors
    12.780000687  0.000000000  0.000000000     0.078247257  0.000000000  0.000000000
     0.000000000 12.780000687  0.000000000     0.000000000  0.078247257  0.000000000
     0.000000000  0.000000000 47.537884041     0.000000000  0.000000000  0.021035854

  length of vectors
    12.780000687 12.780000687 47.537884041     0.078247257  0.078247257  0.021035854


 FORCES acting on ions
    electron-ion (+dipol)            ewald-force                    non-local-force                 convergence-correction
 -----------------------------------------------------------------------------------------------
   0.713E+00 -.430E+00 0.110E+02   -.726E+00 0.443E+00 -.109E+02   0.133E-01 -.132E-01 -.820E-01   -.165E-05 0.173E-05 0.102E-04
   -.574E+00 0.427E+00 -.110E+02   0.586E+00 -.440E+00 0.109E+02   -.113E-01 0.131E-01 0.809E-01   0.176E-05 -.173E-05 -.984E-05
   0.130E+03 -.128E+03 -.287E+01   -.131E+03 0.129E+03 0.250E+01   0.712E+00 -.700E+00 0.377E+00   0.113E-04 -.108E-04 0.838E-05
   -.129E+03 0.127E+03 0.473E+01   0.129E+03 -.128E+03 -.515E+01   -.679E+00 0.676E+00 0.431E+00   -.124E-04 0.121E-04 0.602E-05
   -.131E+03 0.127E+03 0.285E+01   0.132E+03 -.128E+03 -.248E+01   -.715E+00 0.695E+00 -.379E+00   -.112E-04 0.105E-04 -.830E-05
   0.130E+03 -.126E+03 -.471E+01   -.130E+03 0.127E+03 0.513E+01   0.684E+00 -.670E+00 -.430E+00   0.124E-04 -.119E-04 -.608E-05
   0.133E+03 -.131E+03 -.103E+03   -.134E+03 0.133E+03 0.104E+03   0.127E+01 -.126E+01 -.793E+00   0.153E-04 -.149E-04 -.396E-05
   -.132E+03 0.130E+03 -.938E+02   0.134E+03 -.132E+03 0.944E+02   -.115E+01 0.113E+01 -.598E+00   -.178E-04 0.174E-04 -.387E-05
   -.133E+03 0.131E+03 0.103E+03   0.135E+03 -.132E+03 -.104E+03   -.127E+01 0.125E+01 0.793E+00   -.150E-04 0.144E-04 0.389E-05
   0.133E+03 -.130E+03 0.938E+02   -.134E+03 0.131E+03 -.944E+02   0.115E+01 -.113E+01 0.597E+00   0.176E-04 -.168E-04 0.353E-05
   -.548E-01 -.210E+00 -.105E+03   0.764E-01 0.179E+00 0.104E+03   -.225E-01 0.326E-01 0.101E+01   -.430E-05 0.410E-05 -.152E-04
   0.117E+00 0.217E+00 0.105E+03   -.140E+00 -.185E+00 -.104E+03   0.220E-01 -.328E-01 -.101E+01   0.411E-05 -.382E-05 0.142E-04
   -.110E+02 0.107E+02 -.999E+02   0.986E+01 -.964E+01 0.941E+02   0.117E+01 -.111E+01 0.581E+01   -.162E-04 0.156E-04 -.307E-04
   0.111E+02 -.107E+02 0.999E+02   -.995E+01 0.959E+01 -.941E+02   -.117E+01 0.111E+01 -.582E+01   0.146E-04 -.139E-04 0.287E-04
   -.212E+03 0.208E+03 -.310E+03   0.241E+03 -.237E+03 0.289E+03   -.289E+02 0.288E+02 0.217E+02   -.213E-04 0.200E-04 -.409E-04
   0.214E+03 -.214E+03 -.405E+03   -.247E+03 0.247E+03 0.434E+03   0.327E+02 -.326E+02 -.296E+02   0.124E-04 -.126E-04 -.279E-04
   0.212E+03 -.207E+03 0.311E+03   -.241E+03 0.236E+03 -.289E+03   0.290E+02 -.287E+02 -.217E+02   0.217E-04 -.203E-04 0.415E-04
   -.215E+03 0.214E+03 0.405E+03   0.248E+03 -.246E+03 -.434E+03   -.329E+02 0.325E+02 0.296E+02   -.132E-04 0.132E-04 0.284E-04
   0.605E+02 -.598E+02 0.121E+02   -.643E+02 0.634E+02 -.147E+02   0.370E+01 -.364E+01 0.258E+01   0.121E-05 -.107E-05 0.134E-05
   -.599E+02 0.595E+02 0.157E+02   0.635E+02 -.631E+02 -.184E+02   -.361E+01 0.360E+01 0.277E+01   -.100E-05 0.883E-06 0.253E-06
   -.611E+02 0.592E+02 -.121E+02   0.648E+02 -.629E+02 0.147E+02   -.373E+01 0.361E+01 -.259E+01   -.119E-05 0.102E-05 -.131E-05
   0.605E+02 -.589E+02 -.157E+02   -.641E+02 0.625E+02 0.184E+02   0.364E+01 -.356E+01 -.277E+01   0.971E-06 -.845E-06 -.242E-06
   0.596E+02 -.591E+02 -.440E+02   -.632E+02 0.626E+02 0.472E+02   0.352E+01 -.351E+01 -.318E+01   0.249E-05 -.238E-05 -.274E-05
   -.607E+02 0.597E+02 -.387E+02   0.644E+02 -.633E+02 0.416E+02   -.367E+01 0.360E+01 -.289E+01   -.227E-05 0.214E-05 -.282E-05
   -.600E+02 0.587E+02 0.439E+02   0.636E+02 -.622E+02 -.471E+02   -.355E+01 0.348E+01 0.318E+01   -.249E-05 0.233E-05 0.272E-05
   0.611E+02 -.593E+02 0.387E+02   -.648E+02 0.629E+02 -.416E+02   0.369E+01 -.358E+01 0.289E+01   0.232E-05 -.213E-05 0.268E-05
   -.122E+02 0.109E+02 -.140E+03   0.115E+02 -.101E+02 0.149E+03   0.696E+00 -.767E+00 -.821E+01   -.330E-05 0.321E-05 0.524E-05
   0.121E+02 -.109E+02 0.140E+03   -.114E+02 0.101E+02 -.149E+03   -.707E+00 0.764E+00 0.821E+01   0.321E-05 -.306E-05 -.388E-05
 -----------------------------------------------------------------------------------------------
   0.341E-01 0.344E-01 0.484E-04   0.959E-13 -.176E-12 0.227E-12   -.336E-01 -.330E-01 -.530E-04   -.191E-05 0.241E-05 -.720E-06
 
 
 POSITION                                       TOTAL-FORCE (eV/Angst)
 -----------------------------------------------------------------------------------
      2.23116      2.21392     26.69178         0.000748     -0.000029      0.006837
      2.20758      2.22596     25.20770         0.000356      0.000656     -0.007955
      1.38721      3.05344     27.44891        -0.005394      0.006694      0.004938
      3.09842      1.36283     27.40667         0.004926     -0.004841      0.006342
      3.05763      1.39239     24.45083         0.007676     -0.005562     -0.006577
      1.33468      3.07106     24.49256        -0.005970      0.004590     -0.005298
      1.40775      3.04415     28.83690        -0.005548      0.006618      0.004580
      3.12547      1.34782     28.79626         0.006614     -0.006924      0.006221
      3.03728      1.40127     23.06287         0.006311     -0.005323     -0.003902
      1.30885      3.08672     23.10292        -0.007473      0.005301     -0.007854
      2.27805      2.19075     29.52904        -0.000871      0.000990      0.000432
      2.16210      2.24943     22.37044        -0.000708     -0.001162     -0.002312
      2.26279      2.21934     31.01092         0.004584     -0.004987      0.030103
      2.17885      2.22143     20.88856        -0.005215      0.005842     -0.031059
      3.15400      1.34262     31.56996         0.001170     -0.000605      0.006563
      1.54390      2.93700     31.69277        -0.010722      0.010361      0.010243
      1.28533      3.09534     20.32884         0.000196     -0.002819     -0.002170
      2.90093      1.50651     20.20719         0.009593     -0.008387     -0.009623
      0.69708      3.73183     26.95174        -0.009183      0.010084      0.000020
      3.77141      0.69290     26.87575         0.009443     -0.010560     -0.000098
      3.75315      0.71969     24.94819         0.010093     -0.009434     -0.000125
      0.65577      3.73519     25.02328        -0.010083      0.009315      0.000143
      0.75093      3.69739     29.41044        -0.008226      0.008843      0.005163
      3.80640      0.68003     29.32086         0.008830     -0.009814      0.003793
      3.69844      0.75221     22.48959         0.008943     -0.008156     -0.005403
      0.62406      3.75031     22.57803        -0.009619      0.009106     -0.003343
      3.05535      1.44956     32.53788         0.002639     -0.003003      0.011269
      1.38539      2.98890     19.36100        -0.003110      0.003206     -0.010928
 -----------------------------------------------------------------------------------
    total drift:                                0.000542      0.001384     -0.000005


--------------------------------------------------------------------------------------------------------



  FREE ENERGIE OF THE ION-ELECTRON SYSTEM (eV)
  ---------------------------------------------------
  free  energy   TOTEN  =      -190.61951233 eV

  energy  without entropy=     -190.61951233  energy(sigma->0) =     -190.61951233
 


--------------------------------------------------------------------------------------------------------


    POTLOK:  cpu time      0.3979: real time      0.4003


--------------------------------------------------------------------------------------------------------


 writing wavefunctions
     LOOP+:  cpu time    127.6597: real time    135.3518
    4ORBIT:  cpu time      0.0000: real time      0.0000

 total amount of memory used by VASP MPI-rank0   130903. kBytes
=======================================================================

   base      :      30000. kBytes
   nonlr-proj:       2650. kBytes
   fftplans  :      32701. kBytes
   grid      :      55161. kBytes
   one-center:         12. kBytes
   wavefun   :      10379. kBytes
 
  
  
 General timing and accounting informations for this job:
 ========================================================
  
                  Total CPU time used (sec):      163.842
                            User time (sec):      153.198
                          System time (sec):       10.644
                         Elapsed time (sec):      175.577
  
                   Maximum memory used (kb):      535436.
                   Average memory used (kb):          N/A
  
                          Minor page faults:       168271
                          Major page faults:          882
                 Voluntary context switches:         8045
